/*--------------------------------*- C++ -*----------------------------------*\
| =========                 |                                                 |
| \\      /  F ield         | OpenFOAM: The Open Source CFD Toolbox           |
|  \\    /   O peration     | Version:  v2006                                 |
|   \\  /    A nd           | Website:  www.openfoam.com                      |
|    \\/     M anipulation  |                                                 |
\*---------------------------------------------------------------------------*/
FoamFile
{
    version     2.0;
    format      ascii;
    class       volVectorField;
    location    "0";
    object      C;
}
// * * * * * * * * * * * * * * * * * * * * * * * * * * * * * * * * * * * * * //

dimensions      [0 1 0 0 0 0 0];


internalField   nonuniform List<vector> 
1250
(
(0.1 -0.0387032 0.0532704)
(0.3 -0.0387032 0.0532704)
(0.5 -0.0387032 0.0532704)
(0.7 -0.0387032 0.0532704)
(0.9 -0.0387032 0.0532704)
(1.1 -0.0387032 0.0532704)
(1.3 -0.0387032 0.0532704)
(1.5 -0.0387032 0.0532704)
(1.7 -0.0387032 0.0532704)
(1.9 -0.0387032 0.0532704)
(2.1 -0.0387032 0.0532704)
(2.3 -0.0387032 0.0532704)
(2.5 -0.0387032 0.0532704)
(2.7 -0.0387032 0.0532704)
(2.9 -0.0387032 0.0532704)
(3.1 -0.0387032 0.0532704)
(3.3 -0.0387032 0.0532704)
(3.5 -0.0387032 0.0532704)
(3.7 -0.0387032 0.0532704)
(3.9 -0.0387032 0.0532704)
(4.1 -0.0387032 0.0532704)
(4.3 -0.0387032 0.0532704)
(4.5 -0.0387032 0.0532704)
(4.7 -0.0387032 0.0532704)
(4.9 -0.0387032 0.0532704)
(5.1 -0.0387032 0.0532704)
(5.3 -0.0387032 0.0532704)
(5.5 -0.0387032 0.0532704)
(5.7 -0.0387032 0.0532704)
(5.9 -0.0387032 0.0532704)
(6.1 -0.0387032 0.0532704)
(6.3 -0.0387032 0.0532704)
(6.5 -0.0387032 0.0532704)
(6.7 -0.0387032 0.0532704)
(6.9 -0.0387032 0.0532704)
(7.1 -0.0387032 0.0532704)
(7.3 -0.0387032 0.0532704)
(7.5 -0.0387032 0.0532704)
(7.7 -0.0387032 0.0532704)
(7.9 -0.0387032 0.0532704)
(8.1 -0.0387032 0.0532704)
(8.3 -0.0387032 0.0532704)
(8.5 -0.0387032 0.0532704)
(8.7 -0.0387032 0.0532704)
(8.9 -0.0387032 0.0532704)
(9.1 -0.0387032 0.0532704)
(9.3 -0.0387032 0.0532704)
(9.5 -0.0387032 0.0532704)
(9.7 -0.0387032 0.0532704)
(9.9 -0.0387032 0.0532704)
(0.1 -0.0203475 0.0626232)
(0.3 -0.0203475 0.0626232)
(0.5 -0.0203475 0.0626232)
(0.7 -0.0203475 0.0626232)
(0.9 -0.0203475 0.0626232)
(1.1 -0.0203475 0.0626232)
(1.3 -0.0203475 0.0626232)
(1.5 -0.0203475 0.0626232)
(1.7 -0.0203475 0.0626232)
(1.9 -0.0203475 0.0626232)
(2.1 -0.0203475 0.0626232)
(2.3 -0.0203475 0.0626232)
(2.5 -0.0203475 0.0626232)
(2.7 -0.0203475 0.0626232)
(2.9 -0.0203475 0.0626232)
(3.1 -0.0203475 0.0626232)
(3.3 -0.0203475 0.0626232)
(3.5 -0.0203475 0.0626232)
(3.7 -0.0203475 0.0626232)
(3.9 -0.0203475 0.0626232)
(4.1 -0.0203475 0.0626232)
(4.3 -0.0203475 0.0626232)
(4.5 -0.0203475 0.0626232)
(4.7 -0.0203475 0.0626232)
(4.9 -0.0203475 0.0626232)
(5.1 -0.0203475 0.0626232)
(5.3 -0.0203475 0.0626232)
(5.5 -0.0203475 0.0626232)
(5.7 -0.0203475 0.0626232)
(5.9 -0.0203475 0.0626232)
(6.1 -0.0203475 0.0626232)
(6.3 -0.0203475 0.0626232)
(6.5 -0.0203475 0.0626232)
(6.7 -0.0203475 0.0626232)
(6.9 -0.0203475 0.0626232)
(7.1 -0.0203475 0.0626232)
(7.3 -0.0203475 0.0626232)
(7.5 -0.0203475 0.0626232)
(7.7 -0.0203475 0.0626232)
(7.9 -0.0203475 0.0626232)
(8.1 -0.0203475 0.0626232)
(8.3 -0.0203475 0.0626232)
(8.5 -0.0203475 0.0626232)
(8.7 -0.0203475 0.0626232)
(8.9 -0.0203475 0.0626232)
(9.1 -0.0203475 0.0626232)
(9.3 -0.0203475 0.0626232)
(9.5 -0.0203475 0.0626232)
(9.7 -0.0203475 0.0626232)
(9.9 -0.0203475 0.0626232)
(0.1 2.604e-08 0.0658459)
(0.3 2.604e-08 0.0658459)
(0.5 2.604e-08 0.0658459)
(0.7 2.604e-08 0.0658459)
(0.9 2.604e-08 0.0658459)
(1.1 2.604e-08 0.0658459)
(1.3 2.604e-08 0.0658459)
(1.5 2.604e-08 0.0658459)
(1.7 2.604e-08 0.0658459)
(1.9 2.604e-08 0.0658459)
(2.1 2.604e-08 0.0658459)
(2.3 2.604e-08 0.0658459)
(2.5 2.604e-08 0.0658459)
(2.7 2.604e-08 0.0658459)
(2.9 2.604e-08 0.0658459)
(3.1 2.604e-08 0.0658459)
(3.3 2.604e-08 0.0658459)
(3.5 2.604e-08 0.0658459)
(3.7 2.604e-08 0.0658459)
(3.9 2.604e-08 0.0658459)
(4.1 2.604e-08 0.0658459)
(4.3 2.604e-08 0.0658459)
(4.5 2.604e-08 0.0658459)
(4.7 2.604e-08 0.0658459)
(4.9 2.604e-08 0.0658459)
(5.1 2.604e-08 0.0658459)
(5.3 2.604e-08 0.0658459)
(5.5 2.604e-08 0.0658459)
(5.7 2.604e-08 0.0658459)
(5.9 2.604e-08 0.0658459)
(6.1 2.604e-08 0.0658459)
(6.3 2.604e-08 0.0658459)
(6.5 2.604e-08 0.0658459)
(6.7 2.604e-08 0.0658459)
(6.9 2.604e-08 0.0658459)
(7.1 2.604e-08 0.0658459)
(7.3 2.604e-08 0.0658459)
(7.5 2.604e-08 0.0658459)
(7.7 2.604e-08 0.0658459)
(7.9 2.604e-08 0.0658459)
(8.1 2.604e-08 0.0658459)
(8.3 2.604e-08 0.0658459)
(8.5 2.604e-08 0.0658459)
(8.7 2.604e-08 0.0658459)
(8.9 2.604e-08 0.0658459)
(9.1 2.604e-08 0.0658459)
(9.3 2.604e-08 0.0658459)
(9.5 2.604e-08 0.0658459)
(9.7 2.604e-08 0.0658459)
(9.9 2.604e-08 0.0658459)
(0.1 0.0203475 0.0626232)
(0.3 0.0203475 0.0626232)
(0.5 0.0203475 0.0626232)
(0.7 0.0203475 0.0626232)
(0.9 0.0203475 0.0626232)
(1.1 0.0203475 0.0626232)
(1.3 0.0203475 0.0626232)
(1.5 0.0203475 0.0626232)
(1.7 0.0203475 0.0626232)
(1.9 0.0203475 0.0626232)
(2.1 0.0203475 0.0626232)
(2.3 0.0203475 0.0626232)
(2.5 0.0203475 0.0626232)
(2.7 0.0203475 0.0626232)
(2.9 0.0203475 0.0626232)
(3.1 0.0203475 0.0626232)
(3.3 0.0203475 0.0626232)
(3.5 0.0203475 0.0626232)
(3.7 0.0203475 0.0626232)
(3.9 0.0203475 0.0626232)
(4.1 0.0203475 0.0626232)
(4.3 0.0203475 0.0626232)
(4.5 0.0203475 0.0626232)
(4.7 0.0203475 0.0626232)
(4.9 0.0203475 0.0626232)
(5.1 0.0203475 0.0626232)
(5.3 0.0203475 0.0626232)
(5.5 0.0203475 0.0626232)
(5.7 0.0203475 0.0626232)
(5.9 0.0203475 0.0626232)
(6.1 0.0203475 0.0626232)
(6.3 0.0203475 0.0626232)
(6.5 0.0203475 0.0626232)
(6.7 0.0203475 0.0626232)
(6.9 0.0203475 0.0626232)
(7.1 0.0203475 0.0626232)
(7.3 0.0203475 0.0626232)
(7.5 0.0203475 0.0626232)
(7.7 0.0203475 0.0626232)
(7.9 0.0203475 0.0626232)
(8.1 0.0203475 0.0626232)
(8.3 0.0203475 0.0626232)
(8.5 0.0203475 0.0626232)
(8.7 0.0203475 0.0626232)
(8.9 0.0203475 0.0626232)
(9.1 0.0203475 0.0626232)
(9.3 0.0203475 0.0626232)
(9.5 0.0203475 0.0626232)
(9.7 0.0203475 0.0626232)
(9.9 0.0203475 0.0626232)
(0.1 0.0387032 0.0532704)
(0.3 0.0387032 0.0532704)
(0.5 0.0387032 0.0532704)
(0.7 0.0387032 0.0532704)
(0.9 0.0387032 0.0532704)
(1.1 0.0387032 0.0532704)
(1.3 0.0387032 0.0532704)
(1.5 0.0387032 0.0532704)
(1.7 0.0387032 0.0532704)
(1.9 0.0387032 0.0532704)
(2.1 0.0387032 0.0532704)
(2.3 0.0387032 0.0532704)
(2.5 0.0387032 0.0532704)
(2.7 0.0387032 0.0532704)
(2.9 0.0387032 0.0532704)
(3.1 0.0387032 0.0532704)
(3.3 0.0387032 0.0532704)
(3.5 0.0387032 0.0532704)
(3.7 0.0387032 0.0532704)
(3.9 0.0387032 0.0532704)
(4.1 0.0387032 0.0532704)
(4.3 0.0387032 0.0532704)
(4.5 0.0387032 0.0532704)
(4.7 0.0387032 0.0532704)
(4.9 0.0387032 0.0532704)
(5.1 0.0387032 0.0532704)
(5.3 0.0387032 0.0532704)
(5.5 0.0387032 0.0532704)
(5.7 0.0387032 0.0532704)
(5.9 0.0387032 0.0532704)
(6.1 0.0387032 0.0532704)
(6.3 0.0387032 0.0532704)
(6.5 0.0387032 0.0532704)
(6.7 0.0387032 0.0532704)
(6.9 0.0387032 0.0532704)
(7.1 0.0387032 0.0532704)
(7.3 0.0387032 0.0532704)
(7.5 0.0387032 0.0532704)
(7.7 0.0387032 0.0532704)
(7.9 0.0387032 0.0532704)
(8.1 0.0387032 0.0532704)
(8.3 0.0387032 0.0532704)
(8.5 0.0387032 0.0532704)
(8.7 0.0387032 0.0532704)
(8.9 0.0387032 0.0532704)
(9.1 0.0387032 0.0532704)
(9.3 0.0387032 0.0532704)
(9.5 0.0387032 0.0532704)
(9.7 0.0387032 0.0532704)
(9.9 0.0387032 0.0532704)
(0.1 -0.0903075 0.124298)
(0.3 -0.0903075 0.124298)
(0.5 -0.0903075 0.124298)
(0.7 -0.0903075 0.124298)
(0.9 -0.0903075 0.124298)
(1.1 -0.0903075 0.124298)
(1.3 -0.0903075 0.124298)
(1.5 -0.0903075 0.124298)
(1.7 -0.0903075 0.124298)
(1.9 -0.0903075 0.124298)
(2.1 -0.0903075 0.124298)
(2.3 -0.0903075 0.124298)
(2.5 -0.0903075 0.124298)
(2.7 -0.0903075 0.124298)
(2.9 -0.0903075 0.124298)
(3.1 -0.0903075 0.124298)
(3.3 -0.0903075 0.124298)
(3.5 -0.0903075 0.124298)
(3.7 -0.0903075 0.124298)
(3.9 -0.0903075 0.124298)
(4.1 -0.0903075 0.124298)
(4.3 -0.0903075 0.124298)
(4.5 -0.0903075 0.124298)
(4.7 -0.0903075 0.124298)
(4.9 -0.0903075 0.124298)
(5.1 -0.0903075 0.124298)
(5.3 -0.0903075 0.124298)
(5.5 -0.0903075 0.124298)
(5.7 -0.0903075 0.124298)
(5.9 -0.0903075 0.124298)
(6.1 -0.0903075 0.124298)
(6.3 -0.0903075 0.124298)
(6.5 -0.0903075 0.124298)
(6.7 -0.0903075 0.124298)
(6.9 -0.0903075 0.124298)
(7.1 -0.0903075 0.124298)
(7.3 -0.0903075 0.124298)
(7.5 -0.0903075 0.124298)
(7.7 -0.0903075 0.124298)
(7.9 -0.0903075 0.124298)
(8.1 -0.0903075 0.124298)
(8.3 -0.0903075 0.124298)
(8.5 -0.0903075 0.124298)
(8.7 -0.0903075 0.124298)
(8.9 -0.0903075 0.124298)
(9.1 -0.0903075 0.124298)
(9.3 -0.0903075 0.124298)
(9.5 -0.0903075 0.124298)
(9.7 -0.0903075 0.124298)
(9.9 -0.0903075 0.124298)
(0.1 -0.0474774 0.146121)
(0.3 -0.0474774 0.146121)
(0.5 -0.0474774 0.146121)
(0.7 -0.0474774 0.146121)
(0.9 -0.0474774 0.146121)
(1.1 -0.0474774 0.146121)
(1.3 -0.0474774 0.146121)
(1.5 -0.0474774 0.146121)
(1.7 -0.0474774 0.146121)
(1.9 -0.0474774 0.146121)
(2.1 -0.0474774 0.146121)
(2.3 -0.0474774 0.146121)
(2.5 -0.0474774 0.146121)
(2.7 -0.0474774 0.146121)
(2.9 -0.0474774 0.146121)
(3.1 -0.0474774 0.146121)
(3.3 -0.0474774 0.146121)
(3.5 -0.0474774 0.146121)
(3.7 -0.0474774 0.146121)
(3.9 -0.0474774 0.146121)
(4.1 -0.0474774 0.146121)
(4.3 -0.0474774 0.146121)
(4.5 -0.0474774 0.146121)
(4.7 -0.0474774 0.146121)
(4.9 -0.0474774 0.146121)
(5.1 -0.0474774 0.146121)
(5.3 -0.0474774 0.146121)
(5.5 -0.0474774 0.146121)
(5.7 -0.0474774 0.146121)
(5.9 -0.0474774 0.146121)
(6.1 -0.0474774 0.146121)
(6.3 -0.0474774 0.146121)
(6.5 -0.0474774 0.146121)
(6.7 -0.0474774 0.146121)
(6.9 -0.0474774 0.146121)
(7.1 -0.0474774 0.146121)
(7.3 -0.0474774 0.146121)
(7.5 -0.0474774 0.146121)
(7.7 -0.0474774 0.146121)
(7.9 -0.0474774 0.146121)
(8.1 -0.0474774 0.146121)
(8.3 -0.0474774 0.146121)
(8.5 -0.0474774 0.146121)
(8.7 -0.0474774 0.146121)
(8.9 -0.0474774 0.146121)
(9.1 -0.0474774 0.146121)
(9.3 -0.0474774 0.146121)
(9.5 -0.0474774 0.146121)
(9.7 -0.0474774 0.146121)
(9.9 -0.0474774 0.146121)
(0.1 6.076e-08 0.15364)
(0.3 6.076e-08 0.15364)
(0.5 6.076e-08 0.15364)
(0.7 6.076e-08 0.15364)
(0.9 6.076e-08 0.15364)
(1.1 6.076e-08 0.15364)
(1.3 6.076e-08 0.15364)
(1.5 6.076e-08 0.15364)
(1.7 6.076e-08 0.15364)
(1.9 6.076e-08 0.15364)
(2.1 6.076e-08 0.15364)
(2.3 6.076e-08 0.15364)
(2.5 6.076e-08 0.15364)
(2.7 6.076e-08 0.15364)
(2.9 6.076e-08 0.15364)
(3.1 6.076e-08 0.15364)
(3.3 6.076e-08 0.15364)
(3.5 6.076e-08 0.15364)
(3.7 6.076e-08 0.15364)
(3.9 6.076e-08 0.15364)
(4.1 6.076e-08 0.15364)
(4.3 6.076e-08 0.15364)
(4.5 6.076e-08 0.15364)
(4.7 6.076e-08 0.15364)
(4.9 6.076e-08 0.15364)
(5.1 6.076e-08 0.15364)
(5.3 6.076e-08 0.15364)
(5.5 6.076e-08 0.15364)
(5.7 6.076e-08 0.15364)
(5.9 6.076e-08 0.15364)
(6.1 6.076e-08 0.15364)
(6.3 6.076e-08 0.15364)
(6.5 6.076e-08 0.15364)
(6.7 6.076e-08 0.15364)
(6.9 6.076e-08 0.15364)
(7.1 6.076e-08 0.15364)
(7.3 6.076e-08 0.15364)
(7.5 6.076e-08 0.15364)
(7.7 6.076e-08 0.15364)
(7.9 6.076e-08 0.15364)
(8.1 6.076e-08 0.15364)
(8.3 6.076e-08 0.15364)
(8.5 6.076e-08 0.15364)
(8.7 6.076e-08 0.15364)
(8.9 6.076e-08 0.15364)
(9.1 6.076e-08 0.15364)
(9.3 6.076e-08 0.15364)
(9.5 6.076e-08 0.15364)
(9.7 6.076e-08 0.15364)
(9.9 6.076e-08 0.15364)
(0.1 0.0474775 0.146121)
(0.3 0.0474775 0.146121)
(0.5 0.0474775 0.146121)
(0.7 0.0474775 0.146121)
(0.9 0.0474775 0.146121)
(1.1 0.0474775 0.146121)
(1.3 0.0474775 0.146121)
(1.5 0.0474775 0.146121)
(1.7 0.0474775 0.146121)
(1.9 0.0474775 0.146121)
(2.1 0.0474775 0.146121)
(2.3 0.0474775 0.146121)
(2.5 0.0474775 0.146121)
(2.7 0.0474775 0.146121)
(2.9 0.0474775 0.146121)
(3.1 0.0474775 0.146121)
(3.3 0.0474775 0.146121)
(3.5 0.0474775 0.146121)
(3.7 0.0474775 0.146121)
(3.9 0.0474775 0.146121)
(4.1 0.0474775 0.146121)
(4.3 0.0474775 0.146121)
(4.5 0.0474775 0.146121)
(4.7 0.0474775 0.146121)
(4.9 0.0474775 0.146121)
(5.1 0.0474775 0.146121)
(5.3 0.0474775 0.146121)
(5.5 0.0474775 0.146121)
(5.7 0.0474775 0.146121)
(5.9 0.0474775 0.146121)
(6.1 0.0474775 0.146121)
(6.3 0.0474775 0.146121)
(6.5 0.0474775 0.146121)
(6.7 0.0474775 0.146121)
(6.9 0.0474775 0.146121)
(7.1 0.0474775 0.146121)
(7.3 0.0474775 0.146121)
(7.5 0.0474775 0.146121)
(7.7 0.0474775 0.146121)
(7.9 0.0474775 0.146121)
(8.1 0.0474775 0.146121)
(8.3 0.0474775 0.146121)
(8.5 0.0474775 0.146121)
(8.7 0.0474775 0.146121)
(8.9 0.0474775 0.146121)
(9.1 0.0474775 0.146121)
(9.3 0.0474775 0.146121)
(9.5 0.0474775 0.146121)
(9.7 0.0474775 0.146121)
(9.9 0.0474775 0.146121)
(0.1 0.0903076 0.124298)
(0.3 0.0903076 0.124298)
(0.5 0.0903076 0.124298)
(0.7 0.0903076 0.124298)
(0.9 0.0903076 0.124298)
(1.1 0.0903076 0.124298)
(1.3 0.0903076 0.124298)
(1.5 0.0903076 0.124298)
(1.7 0.0903076 0.124298)
(1.9 0.0903076 0.124298)
(2.1 0.0903076 0.124298)
(2.3 0.0903076 0.124298)
(2.5 0.0903076 0.124298)
(2.7 0.0903076 0.124298)
(2.9 0.0903076 0.124298)
(3.1 0.0903076 0.124298)
(3.3 0.0903076 0.124298)
(3.5 0.0903076 0.124298)
(3.7 0.0903076 0.124298)
(3.9 0.0903076 0.124298)
(4.1 0.0903076 0.124298)
(4.3 0.0903076 0.124298)
(4.5 0.0903076 0.124298)
(4.7 0.0903076 0.124298)
(4.9 0.0903076 0.124298)
(5.1 0.0903076 0.124298)
(5.3 0.0903076 0.124298)
(5.5 0.0903076 0.124298)
(5.7 0.0903076 0.124298)
(5.9 0.0903076 0.124298)
(6.1 0.0903076 0.124298)
(6.3 0.0903076 0.124298)
(6.5 0.0903076 0.124298)
(6.7 0.0903076 0.124298)
(6.9 0.0903076 0.124298)
(7.1 0.0903076 0.124298)
(7.3 0.0903076 0.124298)
(7.5 0.0903076 0.124298)
(7.7 0.0903076 0.124298)
(7.9 0.0903076 0.124298)
(8.1 0.0903076 0.124298)
(8.3 0.0903076 0.124298)
(8.5 0.0903076 0.124298)
(8.7 0.0903076 0.124298)
(8.9 0.0903076 0.124298)
(9.1 0.0903076 0.124298)
(9.3 0.0903076 0.124298)
(9.5 0.0903076 0.124298)
(9.7 0.0903076 0.124298)
(9.9 0.0903076 0.124298)
(0.1 -0.147072 0.202428)
(0.3 -0.147072 0.202428)
(0.5 -0.147072 0.202428)
(0.7 -0.147072 0.202428)
(0.9 -0.147072 0.202428)
(1.1 -0.147072 0.202428)
(1.3 -0.147072 0.202428)
(1.5 -0.147072 0.202428)
(1.7 -0.147072 0.202428)
(1.9 -0.147072 0.202428)
(2.1 -0.147072 0.202428)
(2.3 -0.147072 0.202428)
(2.5 -0.147072 0.202428)
(2.7 -0.147072 0.202428)
(2.9 -0.147072 0.202428)
(3.1 -0.147072 0.202428)
(3.3 -0.147072 0.202428)
(3.5 -0.147072 0.202428)
(3.7 -0.147072 0.202428)
(3.9 -0.147072 0.202428)
(4.1 -0.147072 0.202428)
(4.3 -0.147072 0.202428)
(4.5 -0.147072 0.202428)
(4.7 -0.147072 0.202428)
(4.9 -0.147072 0.202428)
(5.1 -0.147072 0.202428)
(5.3 -0.147072 0.202428)
(5.5 -0.147072 0.202428)
(5.7 -0.147072 0.202428)
(5.9 -0.147072 0.202428)
(6.1 -0.147072 0.202428)
(6.3 -0.147072 0.202428)
(6.5 -0.147072 0.202428)
(6.7 -0.147072 0.202428)
(6.9 -0.147072 0.202428)
(7.1 -0.147072 0.202428)
(7.3 -0.147072 0.202428)
(7.5 -0.147072 0.202428)
(7.7 -0.147072 0.202428)
(7.9 -0.147072 0.202428)
(8.1 -0.147072 0.202428)
(8.3 -0.147072 0.202428)
(8.5 -0.147072 0.202428)
(8.7 -0.147072 0.202428)
(8.9 -0.147072 0.202428)
(9.1 -0.147072 0.202428)
(9.3 -0.147072 0.202428)
(9.5 -0.147072 0.202428)
(9.7 -0.147072 0.202428)
(9.9 -0.147072 0.202428)
(0.1 -0.0773204 0.237968)
(0.3 -0.0773204 0.237968)
(0.5 -0.0773204 0.237968)
(0.7 -0.0773204 0.237968)
(0.9 -0.0773204 0.237968)
(1.1 -0.0773204 0.237968)
(1.3 -0.0773204 0.237968)
(1.5 -0.0773204 0.237968)
(1.7 -0.0773204 0.237968)
(1.9 -0.0773204 0.237968)
(2.1 -0.0773204 0.237968)
(2.3 -0.0773204 0.237968)
(2.5 -0.0773204 0.237968)
(2.7 -0.0773204 0.237968)
(2.9 -0.0773204 0.237968)
(3.1 -0.0773204 0.237968)
(3.3 -0.0773204 0.237968)
(3.5 -0.0773204 0.237968)
(3.7 -0.0773204 0.237968)
(3.9 -0.0773204 0.237968)
(4.1 -0.0773204 0.237968)
(4.3 -0.0773204 0.237968)
(4.5 -0.0773204 0.237968)
(4.7 -0.0773204 0.237968)
(4.9 -0.0773204 0.237968)
(5.1 -0.0773204 0.237968)
(5.3 -0.0773204 0.237968)
(5.5 -0.0773204 0.237968)
(5.7 -0.0773204 0.237968)
(5.9 -0.0773204 0.237968)
(6.1 -0.0773204 0.237968)
(6.3 -0.0773204 0.237968)
(6.5 -0.0773204 0.237968)
(6.7 -0.0773204 0.237968)
(6.9 -0.0773204 0.237968)
(7.1 -0.0773204 0.237968)
(7.3 -0.0773204 0.237968)
(7.5 -0.0773204 0.237968)
(7.7 -0.0773204 0.237968)
(7.9 -0.0773204 0.237968)
(8.1 -0.0773204 0.237968)
(8.3 -0.0773204 0.237968)
(8.5 -0.0773204 0.237968)
(8.7 -0.0773204 0.237968)
(8.9 -0.0773204 0.237968)
(9.1 -0.0773204 0.237968)
(9.3 -0.0773204 0.237968)
(9.5 -0.0773204 0.237968)
(9.7 -0.0773204 0.237968)
(9.9 -0.0773204 0.237968)
(0.1 9.89493e-08 0.250214)
(0.3 9.89493e-08 0.250214)
(0.5 9.89493e-08 0.250214)
(0.7 9.89493e-08 0.250214)
(0.9 9.89493e-08 0.250214)
(1.1 9.89493e-08 0.250214)
(1.3 9.89493e-08 0.250214)
(1.5 9.89493e-08 0.250214)
(1.7 9.89493e-08 0.250214)
(1.9 9.89493e-08 0.250214)
(2.1 9.89493e-08 0.250214)
(2.3 9.89493e-08 0.250214)
(2.5 9.89493e-08 0.250214)
(2.7 9.89493e-08 0.250214)
(2.9 9.89493e-08 0.250214)
(3.1 9.89493e-08 0.250214)
(3.3 9.89493e-08 0.250214)
(3.5 9.89493e-08 0.250214)
(3.7 9.89493e-08 0.250214)
(3.9 9.89493e-08 0.250214)
(4.1 9.89493e-08 0.250214)
(4.3 9.89493e-08 0.250214)
(4.5 9.89493e-08 0.250214)
(4.7 9.89493e-08 0.250214)
(4.9 9.89493e-08 0.250214)
(5.1 9.89493e-08 0.250214)
(5.3 9.89493e-08 0.250214)
(5.5 9.89493e-08 0.250214)
(5.7 9.89493e-08 0.250214)
(5.9 9.89493e-08 0.250214)
(6.1 9.89493e-08 0.250214)
(6.3 9.89493e-08 0.250214)
(6.5 9.89493e-08 0.250214)
(6.7 9.89493e-08 0.250214)
(6.9 9.89493e-08 0.250214)
(7.1 9.89493e-08 0.250214)
(7.3 9.89493e-08 0.250214)
(7.5 9.89493e-08 0.250214)
(7.7 9.89493e-08 0.250214)
(7.9 9.89493e-08 0.250214)
(8.1 9.89493e-08 0.250214)
(8.3 9.89493e-08 0.250214)
(8.5 9.89493e-08 0.250214)
(8.7 9.89493e-08 0.250214)
(8.9 9.89493e-08 0.250214)
(9.1 9.89493e-08 0.250214)
(9.3 9.89493e-08 0.250214)
(9.5 9.89493e-08 0.250214)
(9.7 9.89493e-08 0.250214)
(9.9 9.89493e-08 0.250214)
(0.1 0.0773206 0.237968)
(0.3 0.0773206 0.237968)
(0.5 0.0773206 0.237968)
(0.7 0.0773206 0.237968)
(0.9 0.0773206 0.237968)
(1.1 0.0773206 0.237968)
(1.3 0.0773206 0.237968)
(1.5 0.0773206 0.237968)
(1.7 0.0773206 0.237968)
(1.9 0.0773206 0.237968)
(2.1 0.0773206 0.237968)
(2.3 0.0773206 0.237968)
(2.5 0.0773206 0.237968)
(2.7 0.0773206 0.237968)
(2.9 0.0773206 0.237968)
(3.1 0.0773206 0.237968)
(3.3 0.0773206 0.237968)
(3.5 0.0773206 0.237968)
(3.7 0.0773206 0.237968)
(3.9 0.0773206 0.237968)
(4.1 0.0773206 0.237968)
(4.3 0.0773206 0.237968)
(4.5 0.0773206 0.237968)
(4.7 0.0773206 0.237968)
(4.9 0.0773206 0.237968)
(5.1 0.0773206 0.237968)
(5.3 0.0773206 0.237968)
(5.5 0.0773206 0.237968)
(5.7 0.0773206 0.237968)
(5.9 0.0773206 0.237968)
(6.1 0.0773206 0.237968)
(6.3 0.0773206 0.237968)
(6.5 0.0773206 0.237968)
(6.7 0.0773206 0.237968)
(6.9 0.0773206 0.237968)
(7.1 0.0773206 0.237968)
(7.3 0.0773206 0.237968)
(7.5 0.0773206 0.237968)
(7.7 0.0773206 0.237968)
(7.9 0.0773206 0.237968)
(8.1 0.0773206 0.237968)
(8.3 0.0773206 0.237968)
(8.5 0.0773206 0.237968)
(8.7 0.0773206 0.237968)
(8.9 0.0773206 0.237968)
(9.1 0.0773206 0.237968)
(9.3 0.0773206 0.237968)
(9.5 0.0773206 0.237968)
(9.7 0.0773206 0.237968)
(9.9 0.0773206 0.237968)
(0.1 0.147072 0.202428)
(0.3 0.147072 0.202428)
(0.5 0.147072 0.202428)
(0.7 0.147072 0.202428)
(0.9 0.147072 0.202428)
(1.1 0.147072 0.202428)
(1.3 0.147072 0.202428)
(1.5 0.147072 0.202428)
(1.7 0.147072 0.202428)
(1.9 0.147072 0.202428)
(2.1 0.147072 0.202428)
(2.3 0.147072 0.202428)
(2.5 0.147072 0.202428)
(2.7 0.147072 0.202428)
(2.9 0.147072 0.202428)
(3.1 0.147072 0.202428)
(3.3 0.147072 0.202428)
(3.5 0.147072 0.202428)
(3.7 0.147072 0.202428)
(3.9 0.147072 0.202428)
(4.1 0.147072 0.202428)
(4.3 0.147072 0.202428)
(4.5 0.147072 0.202428)
(4.7 0.147072 0.202428)
(4.9 0.147072 0.202428)
(5.1 0.147072 0.202428)
(5.3 0.147072 0.202428)
(5.5 0.147072 0.202428)
(5.7 0.147072 0.202428)
(5.9 0.147072 0.202428)
(6.1 0.147072 0.202428)
(6.3 0.147072 0.202428)
(6.5 0.147072 0.202428)
(6.7 0.147072 0.202428)
(6.9 0.147072 0.202428)
(7.1 0.147072 0.202428)
(7.3 0.147072 0.202428)
(7.5 0.147072 0.202428)
(7.7 0.147072 0.202428)
(7.9 0.147072 0.202428)
(8.1 0.147072 0.202428)
(8.3 0.147072 0.202428)
(8.5 0.147072 0.202428)
(8.7 0.147072 0.202428)
(8.9 0.147072 0.202428)
(9.1 0.147072 0.202428)
(9.3 0.147072 0.202428)
(9.5 0.147072 0.202428)
(9.7 0.147072 0.202428)
(9.9 0.147072 0.202428)
(0.1 -0.204574 0.281572)
(0.3 -0.204574 0.281572)
(0.5 -0.204574 0.281572)
(0.7 -0.204574 0.281572)
(0.9 -0.204574 0.281572)
(1.1 -0.204574 0.281572)
(1.3 -0.204574 0.281572)
(1.5 -0.204574 0.281572)
(1.7 -0.204574 0.281572)
(1.9 -0.204574 0.281572)
(2.1 -0.204574 0.281572)
(2.3 -0.204574 0.281572)
(2.5 -0.204574 0.281572)
(2.7 -0.204574 0.281572)
(2.9 -0.204574 0.281572)
(3.1 -0.204574 0.281572)
(3.3 -0.204574 0.281572)
(3.5 -0.204574 0.281572)
(3.7 -0.204574 0.281572)
(3.9 -0.204574 0.281572)
(4.1 -0.204574 0.281572)
(4.3 -0.204574 0.281572)
(4.5 -0.204574 0.281572)
(4.7 -0.204574 0.281572)
(4.9 -0.204574 0.281572)
(5.1 -0.204574 0.281572)
(5.3 -0.204574 0.281572)
(5.5 -0.204574 0.281572)
(5.7 -0.204574 0.281572)
(5.9 -0.204574 0.281572)
(6.1 -0.204574 0.281572)
(6.3 -0.204574 0.281572)
(6.5 -0.204574 0.281572)
(6.7 -0.204574 0.281572)
(6.9 -0.204574 0.281572)
(7.1 -0.204574 0.281572)
(7.3 -0.204574 0.281572)
(7.5 -0.204574 0.281572)
(7.7 -0.204574 0.281572)
(7.9 -0.204574 0.281572)
(8.1 -0.204574 0.281572)
(8.3 -0.204574 0.281572)
(8.5 -0.204574 0.281572)
(8.7 -0.204574 0.281572)
(8.9 -0.204574 0.281572)
(9.1 -0.204574 0.281572)
(9.3 -0.204574 0.281572)
(9.5 -0.204574 0.281572)
(9.7 -0.204574 0.281572)
(9.9 -0.204574 0.281572)
(0.1 -0.107551 0.331008)
(0.3 -0.107551 0.331008)
(0.5 -0.107551 0.331008)
(0.7 -0.107551 0.331008)
(0.9 -0.107551 0.331008)
(1.1 -0.107551 0.331008)
(1.3 -0.107551 0.331008)
(1.5 -0.107551 0.331008)
(1.7 -0.107551 0.331008)
(1.9 -0.107551 0.331008)
(2.1 -0.107551 0.331008)
(2.3 -0.107551 0.331008)
(2.5 -0.107551 0.331008)
(2.7 -0.107551 0.331008)
(2.9 -0.107551 0.331008)
(3.1 -0.107551 0.331008)
(3.3 -0.107551 0.331008)
(3.5 -0.107551 0.331008)
(3.7 -0.107551 0.331008)
(3.9 -0.107551 0.331008)
(4.1 -0.107551 0.331008)
(4.3 -0.107551 0.331008)
(4.5 -0.107551 0.331008)
(4.7 -0.107551 0.331008)
(4.9 -0.107551 0.331008)
(5.1 -0.107551 0.331008)
(5.3 -0.107551 0.331008)
(5.5 -0.107551 0.331008)
(5.7 -0.107551 0.331008)
(5.9 -0.107551 0.331008)
(6.1 -0.107551 0.331008)
(6.3 -0.107551 0.331008)
(6.5 -0.107551 0.331008)
(6.7 -0.107551 0.331008)
(6.9 -0.107551 0.331008)
(7.1 -0.107551 0.331008)
(7.3 -0.107551 0.331008)
(7.5 -0.107551 0.331008)
(7.7 -0.107551 0.331008)
(7.9 -0.107551 0.331008)
(8.1 -0.107551 0.331008)
(8.3 -0.107551 0.331008)
(8.5 -0.107551 0.331008)
(8.7 -0.107551 0.331008)
(8.9 -0.107551 0.331008)
(9.1 -0.107551 0.331008)
(9.3 -0.107551 0.331008)
(9.5 -0.107551 0.331008)
(9.7 -0.107551 0.331008)
(9.9 -0.107551 0.331008)
(0.1 1.37635e-07 0.348043)
(0.3 1.37635e-07 0.348043)
(0.5 1.37635e-07 0.348043)
(0.7 1.37635e-07 0.348043)
(0.9 1.37635e-07 0.348043)
(1.1 1.37635e-07 0.348043)
(1.3 1.37635e-07 0.348043)
(1.5 1.37635e-07 0.348043)
(1.7 1.37635e-07 0.348043)
(1.9 1.37635e-07 0.348043)
(2.1 1.37635e-07 0.348043)
(2.3 1.37635e-07 0.348043)
(2.5 1.37635e-07 0.348043)
(2.7 1.37635e-07 0.348043)
(2.9 1.37635e-07 0.348043)
(3.1 1.37635e-07 0.348043)
(3.3 1.37635e-07 0.348043)
(3.5 1.37635e-07 0.348043)
(3.7 1.37635e-07 0.348043)
(3.9 1.37635e-07 0.348043)
(4.1 1.37635e-07 0.348043)
(4.3 1.37635e-07 0.348043)
(4.5 1.37635e-07 0.348043)
(4.7 1.37635e-07 0.348043)
(4.9 1.37635e-07 0.348043)
(5.1 1.37635e-07 0.348043)
(5.3 1.37635e-07 0.348043)
(5.5 1.37635e-07 0.348043)
(5.7 1.37635e-07 0.348043)
(5.9 1.37635e-07 0.348043)
(6.1 1.37635e-07 0.348043)
(6.3 1.37635e-07 0.348043)
(6.5 1.37635e-07 0.348043)
(6.7 1.37635e-07 0.348043)
(6.9 1.37635e-07 0.348043)
(7.1 1.37635e-07 0.348043)
(7.3 1.37635e-07 0.348043)
(7.5 1.37635e-07 0.348043)
(7.7 1.37635e-07 0.348043)
(7.9 1.37635e-07 0.348043)
(8.1 1.37635e-07 0.348043)
(8.3 1.37635e-07 0.348043)
(8.5 1.37635e-07 0.348043)
(8.7 1.37635e-07 0.348043)
(8.9 1.37635e-07 0.348043)
(9.1 1.37635e-07 0.348043)
(9.3 1.37635e-07 0.348043)
(9.5 1.37635e-07 0.348043)
(9.7 1.37635e-07 0.348043)
(9.9 1.37635e-07 0.348043)
(0.1 0.107551 0.331008)
(0.3 0.107551 0.331008)
(0.5 0.107551 0.331008)
(0.7 0.107551 0.331008)
(0.9 0.107551 0.331008)
(1.1 0.107551 0.331008)
(1.3 0.107551 0.331008)
(1.5 0.107551 0.331008)
(1.7 0.107551 0.331008)
(1.9 0.107551 0.331008)
(2.1 0.107551 0.331008)
(2.3 0.107551 0.331008)
(2.5 0.107551 0.331008)
(2.7 0.107551 0.331008)
(2.9 0.107551 0.331008)
(3.1 0.107551 0.331008)
(3.3 0.107551 0.331008)
(3.5 0.107551 0.331008)
(3.7 0.107551 0.331008)
(3.9 0.107551 0.331008)
(4.1 0.107551 0.331008)
(4.3 0.107551 0.331008)
(4.5 0.107551 0.331008)
(4.7 0.107551 0.331008)
(4.9 0.107551 0.331008)
(5.1 0.107551 0.331008)
(5.3 0.107551 0.331008)
(5.5 0.107551 0.331008)
(5.7 0.107551 0.331008)
(5.9 0.107551 0.331008)
(6.1 0.107551 0.331008)
(6.3 0.107551 0.331008)
(6.5 0.107551 0.331008)
(6.7 0.107551 0.331008)
(6.9 0.107551 0.331008)
(7.1 0.107551 0.331008)
(7.3 0.107551 0.331008)
(7.5 0.107551 0.331008)
(7.7 0.107551 0.331008)
(7.9 0.107551 0.331008)
(8.1 0.107551 0.331008)
(8.3 0.107551 0.331008)
(8.5 0.107551 0.331008)
(8.7 0.107551 0.331008)
(8.9 0.107551 0.331008)
(9.1 0.107551 0.331008)
(9.3 0.107551 0.331008)
(9.5 0.107551 0.331008)
(9.7 0.107551 0.331008)
(9.9 0.107551 0.331008)
(0.1 0.204574 0.281572)
(0.3 0.204574 0.281572)
(0.5 0.204574 0.281572)
(0.7 0.204574 0.281572)
(0.9 0.204574 0.281572)
(1.1 0.204574 0.281572)
(1.3 0.204574 0.281572)
(1.5 0.204574 0.281572)
(1.7 0.204574 0.281572)
(1.9 0.204574 0.281572)
(2.1 0.204574 0.281572)
(2.3 0.204574 0.281572)
(2.5 0.204574 0.281572)
(2.7 0.204574 0.281572)
(2.9 0.204574 0.281572)
(3.1 0.204574 0.281572)
(3.3 0.204574 0.281572)
(3.5 0.204574 0.281572)
(3.7 0.204574 0.281572)
(3.9 0.204574 0.281572)
(4.1 0.204574 0.281572)
(4.3 0.204574 0.281572)
(4.5 0.204574 0.281572)
(4.7 0.204574 0.281572)
(4.9 0.204574 0.281572)
(5.1 0.204574 0.281572)
(5.3 0.204574 0.281572)
(5.5 0.204574 0.281572)
(5.7 0.204574 0.281572)
(5.9 0.204574 0.281572)
(6.1 0.204574 0.281572)
(6.3 0.204574 0.281572)
(6.5 0.204574 0.281572)
(6.7 0.204574 0.281572)
(6.9 0.204574 0.281572)
(7.1 0.204574 0.281572)
(7.3 0.204574 0.281572)
(7.5 0.204574 0.281572)
(7.7 0.204574 0.281572)
(7.9 0.204574 0.281572)
(8.1 0.204574 0.281572)
(8.3 0.204574 0.281572)
(8.5 0.204574 0.281572)
(8.7 0.204574 0.281572)
(8.9 0.204574 0.281572)
(9.1 0.204574 0.281572)
(9.3 0.204574 0.281572)
(9.5 0.204574 0.281572)
(9.7 0.204574 0.281572)
(9.9 0.204574 0.281572)
(0.1 -0.262322 0.361055)
(0.3 -0.262322 0.361055)
(0.5 -0.262322 0.361055)
(0.7 -0.262322 0.361055)
(0.9 -0.262322 0.361055)
(1.1 -0.262322 0.361055)
(1.3 -0.262322 0.361055)
(1.5 -0.262322 0.361055)
(1.7 -0.262322 0.361055)
(1.9 -0.262322 0.361055)
(2.1 -0.262322 0.361055)
(2.3 -0.262322 0.361055)
(2.5 -0.262322 0.361055)
(2.7 -0.262322 0.361055)
(2.9 -0.262322 0.361055)
(3.1 -0.262322 0.361055)
(3.3 -0.262322 0.361055)
(3.5 -0.262322 0.361055)
(3.7 -0.262322 0.361055)
(3.9 -0.262322 0.361055)
(4.1 -0.262322 0.361055)
(4.3 -0.262322 0.361055)
(4.5 -0.262322 0.361055)
(4.7 -0.262322 0.361055)
(4.9 -0.262322 0.361055)
(5.1 -0.262322 0.361055)
(5.3 -0.262322 0.361055)
(5.5 -0.262322 0.361055)
(5.7 -0.262322 0.361055)
(5.9 -0.262322 0.361055)
(6.1 -0.262322 0.361055)
(6.3 -0.262322 0.361055)
(6.5 -0.262322 0.361055)
(6.7 -0.262322 0.361055)
(6.9 -0.262322 0.361055)
(7.1 -0.262322 0.361055)
(7.3 -0.262322 0.361055)
(7.5 -0.262322 0.361055)
(7.7 -0.262322 0.361055)
(7.9 -0.262322 0.361055)
(8.1 -0.262322 0.361055)
(8.3 -0.262322 0.361055)
(8.5 -0.262322 0.361055)
(8.7 -0.262322 0.361055)
(8.9 -0.262322 0.361055)
(9.1 -0.262322 0.361055)
(9.3 -0.262322 0.361055)
(9.5 -0.262322 0.361055)
(9.7 -0.262322 0.361055)
(9.9 -0.262322 0.361055)
(0.1 -0.137911 0.424446)
(0.3 -0.137911 0.424446)
(0.5 -0.137911 0.424446)
(0.7 -0.137911 0.424446)
(0.9 -0.137911 0.424446)
(1.1 -0.137911 0.424446)
(1.3 -0.137911 0.424446)
(1.5 -0.137911 0.424446)
(1.7 -0.137911 0.424446)
(1.9 -0.137911 0.424446)
(2.1 -0.137911 0.424446)
(2.3 -0.137911 0.424446)
(2.5 -0.137911 0.424446)
(2.7 -0.137911 0.424446)
(2.9 -0.137911 0.424446)
(3.1 -0.137911 0.424446)
(3.3 -0.137911 0.424446)
(3.5 -0.137911 0.424446)
(3.7 -0.137911 0.424446)
(3.9 -0.137911 0.424446)
(4.1 -0.137911 0.424446)
(4.3 -0.137911 0.424446)
(4.5 -0.137911 0.424446)
(4.7 -0.137911 0.424446)
(4.9 -0.137911 0.424446)
(5.1 -0.137911 0.424446)
(5.3 -0.137911 0.424446)
(5.5 -0.137911 0.424446)
(5.7 -0.137911 0.424446)
(5.9 -0.137911 0.424446)
(6.1 -0.137911 0.424446)
(6.3 -0.137911 0.424446)
(6.5 -0.137911 0.424446)
(6.7 -0.137911 0.424446)
(6.9 -0.137911 0.424446)
(7.1 -0.137911 0.424446)
(7.3 -0.137911 0.424446)
(7.5 -0.137911 0.424446)
(7.7 -0.137911 0.424446)
(7.9 -0.137911 0.424446)
(8.1 -0.137911 0.424446)
(8.3 -0.137911 0.424446)
(8.5 -0.137911 0.424446)
(8.7 -0.137911 0.424446)
(8.9 -0.137911 0.424446)
(9.1 -0.137911 0.424446)
(9.3 -0.137911 0.424446)
(9.5 -0.137911 0.424446)
(9.7 -0.137911 0.424446)
(9.9 -0.137911 0.424446)
(0.1 1.76491e-07 0.446289)
(0.3 1.76491e-07 0.446289)
(0.5 1.76491e-07 0.446289)
(0.7 1.76491e-07 0.446289)
(0.9 1.76491e-07 0.446289)
(1.1 1.76491e-07 0.446289)
(1.3 1.76491e-07 0.446289)
(1.5 1.76491e-07 0.446289)
(1.7 1.76491e-07 0.446289)
(1.9 1.76491e-07 0.446289)
(2.1 1.76491e-07 0.446289)
(2.3 1.76491e-07 0.446289)
(2.5 1.76491e-07 0.446289)
(2.7 1.76491e-07 0.446289)
(2.9 1.76491e-07 0.446289)
(3.1 1.76491e-07 0.446289)
(3.3 1.76491e-07 0.446289)
(3.5 1.76491e-07 0.446289)
(3.7 1.76491e-07 0.446289)
(3.9 1.76491e-07 0.446289)
(4.1 1.76491e-07 0.446289)
(4.3 1.76491e-07 0.446289)
(4.5 1.76491e-07 0.446289)
(4.7 1.76491e-07 0.446289)
(4.9 1.76491e-07 0.446289)
(5.1 1.76491e-07 0.446289)
(5.3 1.76491e-07 0.446289)
(5.5 1.76491e-07 0.446289)
(5.7 1.76491e-07 0.446289)
(5.9 1.76491e-07 0.446289)
(6.1 1.76491e-07 0.446289)
(6.3 1.76491e-07 0.446289)
(6.5 1.76491e-07 0.446289)
(6.7 1.76491e-07 0.446289)
(6.9 1.76491e-07 0.446289)
(7.1 1.76491e-07 0.446289)
(7.3 1.76491e-07 0.446289)
(7.5 1.76491e-07 0.446289)
(7.7 1.76491e-07 0.446289)
(7.9 1.76491e-07 0.446289)
(8.1 1.76491e-07 0.446289)
(8.3 1.76491e-07 0.446289)