# Wall shear stress
# Time        	patch         	min           	max           
269           	plate	(-1.804791e+00 -1.685986e+00 -1.645712e-20)	(4.677479e-02 1.301194e-03 1.769874e-20)
