/*--------------------------------*- C++ -*----------------------------------*\
| =========                 |                                                 |
| \\      /  F ield         | OpenFOAM: The Open Source CFD Toolbox           |
|  \\    /   O peration     | Version:  v2006                                 |
|   \\  /    A nd           | Website:  www.openfoam.com                      |
|    \\/     M anipulation  |                                                 |
\*---------------------------------------------------------------------------*/
FoamFile
{
    version     2.0;
    format      ascii;
    class       volScalarField;
    location    "227";
    object      epsilon;
}
// * * * * * * * * * * * * * * * * * * * * * * * * * * * * * * * * * * * * * //

dimensions      [0 2 -3 0 0 0 0];


internalField   nonuniform List<scalar> 
1250
(
8.74602e-05
0.000102116
0.000123
0.000137399
0.000152855
0.00015951
0.000171908
0.000193515
0.000228854
0.000272108
0.000321952
0.000368011
0.00040815
0.000434857
0.000450377
0.000453701
0.00045451
0.000457697
0.000465758
0.000480486
0.000502949
0.000526977
0.000554936
0.000580102
0.000605701
0.000626002
0.000645264
0.000658996
0.000672539
0.000681319
0.000690372
0.000695543
0.000700769
0.000704347
0.000705268
0.000707004
0.000706838
0.000705257
0.000702903
0.00069945
0.00069482
0.000687481
0.000678334
0.000668905
0.000667442
0.000674839
0.000725969
0.000877008
0.00109664
0.00131989
8.74728e-05
0.000102114
0.000122987
0.000137387
0.000152855
0.000159506
0.000171906
0.000193517
0.000228851
0.000272107
0.000321951
0.000368011
0.000408149
0.000434857
0.000450376
0.0004537
0.000454509
0.000457698
0.00046576
0.000480486
0.000502949
0.000526972
0.00055494
0.000580105
0.000605695
0.000626003
0.000645309
0.000659103
0.000672492
0.000681297
0.000690328
0.000695874
0.000700796
0.000704301
0.000705203
0.000706996
0.000706824
0.000705215
0.00070284
0.000699573
0.000694763
0.000687559
0.000678005
0.000669125
0.000668462
0.000672819
0.000722672
0.000873017
0.00109592
0.00131286
8.74627e-05
0.000102119
0.000122996
0.000137395
0.000152854
0.000159505
0.000171906
0.000193515
0.000228854
0.000272104
0.000321947
0.000368012
0.000408149
0.000434856
0.000450372
0.000453696
0.000454508
0.000457698
0.000465762
0.000480482
0.000502951
0.000526975
0.000554938
0.000580102
0.0006057
0.000625985
0.000645293
0.000659085
0.000672596
0.000681216
0.000690124
0.000695774
0.000701065
0.000704103
0.000705128
0.000706948
0.00070672
0.000705136
0.000702914
0.000699468
0.000694644
0.000687406
0.000678245
0.000669137
0.000667528
0.00067436
0.000724007
0.000875698
0.00110741
0.00132182
8.74768e-05
0.000102114
0.000122985
0.000137386
0.000152854
0.000159511
0.000171907
0.000193517
0.000228852
0.000272105
0.000321944
0.000368009
0.000408151
0.000434857
0.000450378
0.000453697
0.000454506
0.000457696
0.000465768
0.000480486
0.000502956
0.000526971
0.000554941
0.000580101
0.000605699
0.000625978
0.000645279
0.00065906
0.000672599
0.000681234
0.000690181
0.000695678
0.000701041
0.000704312
0.000705252
0.000707055
0.000706828
0.000705209
0.000702813
0.000699481
0.000694736
0.000687515
0.000678222
0.000668905
0.000667641
0.000672589
0.000727372
0.000875864
0.00111168
0.00132864
8.7475e-05
0.000102119
0.000122994
0.000137392
0.000152854
0.000159511
0.000171909
0.00019352
0.000228853
0.000272108
0.000321945
0.00036801
0.000408151
0.000434855
0.000450377
0.000453698
0.000454507
0.000457694
0.000465765
0.000480484
0.000502955
0.000526975
0.000554941
0.000580102
0.000605696
0.000625968
0.000645245
0.000659032
0.000672561
0.000681335
0.000690109
0.000695495
0.000700936
0.00070416
0.000705205
0.000706979
0.000706715
0.000705097
0.000702854
0.000699462
0.000694547
0.00068742
0.000678074
0.000669011
0.000668501
0.000674756
0.000726548
0.000879018
0.00110608
0.00132738
8.64465e-05
8.73856e-05
9.07782e-05
9.77048e-05
0.000105681
0.000112424
0.000119723
0.000129911
0.000141723
0.000155075
0.000168231
0.000182393
0.000198052
0.000214932
0.000233248
0.000252138
0.000273415
0.000295299
0.000319935
0.000344193
0.000370705
0.000396033
0.000423624
0.000449748
0.000478454
0.000505111
0.000534389
0.000560345
0.000588888
0.000612641
0.000638624
0.000659484
0.000681087
0.000698283
0.00071545
0.000727961
0.000741082
0.000749392
0.000757533
0.000762886
0.0007667
0.000769031
0.00076844
0.000766174
0.000761731
0.000761082
0.000764722
0.00079818
0.000840064
0.000944752
8.64465e-05
8.73857e-05
9.07779e-05
9.76997e-05
0.000105677
0.000112419
0.000119727
0.000129908
0.00014173
0.000155084
0.000168233
0.000182405
0.000198045
0.000214951
0.000233249
0.000252115
0.00027342
0.000295289
0.000319935
0.00034418
0.000370701
0.000396027
0.000423618
0.000449753
0.00047845
0.000505112
0.000534382
0.000560328
0.000588916
0.000612694
0.000638619
0.000659449
0.000681067
0.000698351
0.00071548
0.000728047
0.000741039
0.000749498
0.000757508
0.000762951
0.00076678
0.000768816
0.000768314
0.000765691
0.000763473
0.000760709
0.000761096
0.00078328
0.000819072
0.000940938
8.64465e-05
8.73856e-05
9.07782e-05
9.7704e-05
0.000105679
0.000112424
0.000119723
0.000129906
0.000141719
0.000155085
0.000168236
0.000182398
0.000198051
0.000214936
0.000233252
0.000252121
0.000273417
0.000295268
0.000319933
0.000344172
0.000370697
0.000396018
0.000423611
0.000449759
0.000478465
0.000505109
0.000534398
0.000560331
0.000588901
0.000612695
0.000638622
0.000659493
0.000681118
0.000698303
0.000715385
0.000727956
0.000741075
0.000749395
0.000757539
0.000762958
0.000766711
0.000769017
0.000768518
0.000765672
0.000762953
0.000763131
0.000765788
0.000798247
0.000834909
0.00095686
8.64466e-05
8.73857e-05
9.07776e-05
9.77026e-05
0.000105677
0.000112422
0.000119722
0.000129909
0.000141717
0.000155075
0.000168234
0.000182391
0.00019805
0.000214953
0.000233249
0.000252134
0.000273417
0.000295266
0.000319934
0.000344175
0.000370697
0.000396019
0.000423616
0.000449755
0.000478455
0.000505108
0.000534378
0.000560331
0.00058887
0.000612693
0.000638625
0.00065944
0.000681067
0.000698343
0.00071543
0.000728003
0.000741017
0.000749285
0.00075746
0.000762869
0.000766645
0.000768888
0.000768326
0.000765887
0.000762724
0.000761521
0.0007611
0.000793745
0.000839209
0.000948174
8.64466e-05
8.73857e-05
9.07781e-05
9.77003e-05
0.000105676
0.000112424
0.000119731
0.000129908
0.000141727
0.00015508
0.000168236
0.000182391
0.000198054
0.000214934
0.000233246
0.000252116
0.000273416
0.000295281
0.000319931
0.000344189
0.000370703
0.000396024
0.000423623
0.000449747
0.000478458
0.000505108
0.00053439
0.000560335
0.000588886
0.000612661
0.000638607
0.000659393
0.000681
0.000698349
0.000715334
0.000728003
0.000741039
0.000749414
0.000757414
0.000762915
0.000766698
0.000768735
0.000768169
0.000765997
0.000762279
0.000764307
0.000762667
0.000781712
0.000817767
0.000951245
0.000106136
0.000114221
0.000130612
0.000163515
0.000201074
0.000246704
0.000295506
0.000352466
0.000416707
0.00049374
0.00058012
0.000679428
0.000786399
0.000897499
0.00100877
0.00111705
0.00122168
0.00132056
0.00141555
0.00150442
0.00158991
0.00166871
0.00174323
0.00180866
0.00186855
0.00191809
0.00195984
0.00199134
0.00201467
0.00202853
0.00203596
0.00203458
0.00202899
0.00201826
0.00200004
0.00198063
0.00195564
0.00193166
0.00190009
0.00187471
0.00183815
0.00181259
0.0017708
0.00174726
0.00170073
0.00167635
0.00162856
0.00159863
0.00155762
0.00146275
0.000106136
0.00011422
0.000130613
0.000163446
0.000201059
0.000246711
0.000295509
0.000352477
0.000416723
0.000493751
0.000580135
0.000679394
0.000786383
0.000897543
0.00100875
0.00111712
0.00122172
0.00132061
0.00141555
0.00150442
0.00158994
0.00166871
0.00174326
0.00180869
0.00186856
0.00191816
0.00195976
0.00199127
0.0020148
0.0020284
0.00203629
0.002035
0.00202887
0.00201796
0.00200011
0.00198037
0.00195524
0.00193125
0.00190029
0.00187446
0.00183787
0.00181215
0.00177045
0.00174686
0.00170026
0.00167717
0.0016276
0.00159842
0.00155601
0.00146605
0.000106136
0.000114221
0.000130615
0.000163445
0.000201049
0.000246717
0.000295519
0.000352456
0.000416706
0.000493756
0.000580132
0.000679399
0.000786397
0.000897495
0.00100874
0.00111705
0.00122171
0.0013206
0.00141557
0.0015044
0.00158992
0.0016687
0.00174325
0.00180867
0.00186856
0.00191808
0.00195986
0.00199114
0.00201463
0.00202825
0.002036
0.00203469
0.00202923
0.00201775
0.00199962
0.00198046
0.00195567
0.0019307
0.0018997
0.00187479
0.00183753
0.00181202
0.00177012
0.00174688
0.00170089
0.00167665
0.00162828
0.00159847
0.00155717
0.0014665
0.000106135
0.000114221
0.000130616
0.000163516
0.000201052
0.000246738
0.000295525
0.000352468
0.000416691
0.000493786
0.000580124
0.000679445
0.000786418
0.000897501
0.00100875
0.00111707
0.00122172
0.0013206
0.00141558
0.00150443
0.00158989
0.0016687
0.00174322
0.00180864
0.00186856
0.00191812
0.00195979
0.00199124
0.00201457
0.00202832
0.00203622
0.00203496
0.00202887
0.00201801
0.00199992
0.00198
0.0019556
0.00193123
0.00190003
0.00187429
0.00183787
0.0018124
0.00177059
0.00174639
0.00170031
0.00167725
0.00162761
0.00159795
0.0015581
0.0014652
0.000106136
0.00011422
0.000130614
0.000163462
0.000201055
0.00024672
0.000295526
0.00035248
0.000416699
0.00049376
0.000580125
0.000679402
0.000786422
0.000897507
0.00100878
0.00111704
0.00122166
0.00132064
0.00141558
0.00150448
0.00158991
0.00166871
0.00174321
0.00180864
0.00186852
0.00191816
0.00195975
0.00199109
0.00201471
0.00202812
0.00203597
0.00203467
0.00202916
0.00201769
0.00199946
0.00197985
0.00195521
0.0019309
0.00189937
0.00187462
0.00183755
0.00181197
0.0017702
0.00174678
0.00169984
0.00167651
0.00162845
0.00159839
0.001556
0.00146861
0.00021062
0.000379257
0.000509405
0.00076704
0.00105318
0.00145427
0.00188394
0.00236084
0.00283158
0.00327645
0.00366446
0.0039876
0.00425117
0.00447713
0.00467956
0.00486945
0.0050434
0.00520177
0.00533253
0.00544025
0.0055092
0.00555769
0.00555988
0.00554832
0.00551863
0.00546518
0.00539705
0.00531944
0.00523178
0.00514054
0.00504149
0.00494285
0.00483601
0.00473156
0.00462327
0.00451599
0.00441205
0.00430786
0.00420768
0.00410618
0.00401237
0.00391276
0.0038249
0.00372886
0.00364551
0.00355095
0.00347129
0.00336855
0.00328231
0.00299778
0.000210604
0.000379165
0.000509503
0.000766676
0.00105314
0.0014543
0.00188396
0.00236076
0.00283156
0.00327649
0.00366461
0.00398759
0.00425097
0.00447707
0.00467958
0.00486956
0.00504349
0.00520178
0.00533243
0.00544027
0.00550921
0.00555773
0.00555989
0.00554831
0.00551868
0.00546516
0.00539685
0.00531914
0.00523158
0.00514022
0.00504101
0.00494227
0.00483641
0.0047324
0.00462267
0.00451544
0.00441154
0.00430719
0.00420832
0.00410647
0.00401307
0.00391337
0.00382507
0.00372889
0.00364564
0.00355035
0.00347171
0.00336913
0.00328107
0.0029993
0.000210601
0.000379198
0.000509517
0.000766793
0.00105313
0.00145434
0.00188402
0.00236073
0.00283148
0.00327651
0.0036647
0.0039877
0.00425101
0.00447692
0.0046794
0.00486953
0.00504355
0.00520184
0.00533247
0.00544021
0.00550914
0.00555769
0.00555989
0.00554833
0.00551869
0.00546508
0.00539705
0.00531928
0.00523127
0.00514047
0.00504124
0.00494268
0.00483588
0.00473178
0.004623
0.00451593
0.00441074
0.00430609
0.00420734
0.00410572
0.00401226
0.00391248
0.00382514
0.00372807
0.00364471
0.00354958
0.0034708
0.0033683
0.00328195
0.00299763
0.000210568
0.000379269
0.000509514
0.000767037
0.00105314
0.00145441
0.00188404
0.00236076
0.00283149
0.00327639
0.00366471
0.00398778
0.00425113
0.00447697
0.00467939
0.00486941
0.00504354
0.00520186
0.00533252
0.00544024
0.00550914
0.00555765
0.00555983
0.00554831
0.0055187
0.00546508
0.00539689
0.00531916
0.00523147
0.00514008
0.00504109
0.00494279
0.00483537
0.00473102
0.00462196
0.0045152
0.00441153
0.00430695
0.00420817
0.00410497
0.00401253
0.00391298
0.00382425
0.0037284
0.00364513
0.00355009
0.00347151
0.00336778
0.00328062
0.00299896
0.000210624
0.000379155
0.000509506
0.000766698
0.00105312
0.00145427
0.00188398
0.00236079
0.00283157
0.00327638
0.00366444
0.00398779
0.0042512
0.00447706
0.00467947
0.00486939
0.00504339
0.00520187
0.00533253
0.00544029
0.00550918
0.00555767
0.00555983
0.00554824
0.0055187
0.00546505
0.00539685
0.00531899
0.00523156
0.00513995
0.00504115
0.00494203
0.00483601
0.00473161
0.00462263
0.00451559
0.00441178
0.00430635
0.00420813
0.00410595
0.00401282
0.00391311
0.00382504
0.00372766
0.00364447
0.0035495
0.00347156
0.00336874
0.00328018
0.00299884
0.00477389
0.00494892
0.00506996
0.00515168
0.00518888
0.00521411
0.00524901
0.00532015
0.00542298
0.00555407
0.00570127
0.00585506
0.00599853
0.00613281
0.00625533
0.00636438
0.00646307
0.00655034
0.00663184
0.00670666
0.00677612
0.00683754
0.00688894
0.00693358
0.00696451
0.00698737
0.00699364
0.00698944
0.00697757
0.00695323
0.00691899
0.006878
0.00682667
0.00677289
0.00670988
0.00664808
0.00657566
0.00650419
0.00642997
0.0063546
0.00627651
0.00619831
0.00611782
0.00604062
0.0059585
0.00588324
0.00580277
0.00573615
0.0056694
0.00569684
0.00477389
0.00494894
0.00506997
0.00515171
0.00518886
0.00521403
0.00524896
0.00532025
0.00542313
0.00555396
0.00570096
0.00585472
0.0059988
0.00613311
0.00625557
0.00636436
0.00646303
0.00655027
0.00663187
0.0067067
0.00677641
0.00683758
0.00688886
0.00693354
0.00696434
0.00698734
0.00699352
0.00698937
0.00697751
0.00695368
0.00691868
0.00687861
0.00682743
0.00677402
0.00671148
0.00664765
0.00657814
0.00650573
0.00642894
0.00635283
0.00627412
0.00619594
0.00611486
0.00603805
0.00595587
0.00588071
0.00580084
0.00573493
0.00566884
0.00569655
0.00477389
0.00494891
0.00506996
0.00515175
0.00518887
0.00521396
0.00524887
0.00532014
0.00542328
0.00555442
0.00570085
0.0058543
0.00599854
0.00613305
0.00625572
0.00636468
0.00646301
0.00655026
0.00663175
0.00670667
0.00677637
0.0068379
0.00688885
0.00693373
0.0069642
0.00698709
0.0069935
0.00698931
0.00697742
0.00695338
0.00691825
0.00687777
0.00682645
0.00677298
0.00670991
0.00664643
0.00657717
0.00650652
0.00643106
0.00635495
0.00627671
0.00619792
0.00611862
0.00603841
0.00595694
0.00588109
0.00579982
0.00573337
0.00566739
0.00569544
0.00477389
0.00494892
0.00506993
0.00515173
0.00518898
0.00521404
0.00524885
0.00531997
0.00542315
0.00555448
0.00570134
0.00585415
0.0059982
0.00613283
0.00625562
0.00636469
0.00646305
0.00655028
0.00663169
0.0067065
0.00677627
0.00683784
0.00688908
0.00693361
0.00696473
0.00698696
0.00699338
0.00698923
0.00697741
0.00695378
0.00691859
0.00687848
0.00682708
0.00677395
0.00671079
0.00664551
0.0065755
0.00650434
0.00642813
0.00635345
0.00627598
0.00619784
0.00611809
0.00604057
0.00595856
0.00588345
0.00580262
0.00573614
0.00566907
0.00569656
0.00477389
0.00494893
0.00506994
0.00515168
0.00518894
0.00521413
0.00524896
0.00531996
0.00542302
0.00555428
0.00570154
0.00585488
0.00599808
0.00613268
0.00625549
0.00636456
0.00646312
0.00655039
0.00663173
0.00670641
0.00677612
0.00683766
0.00688906
0.00693358
0.00696461
0.00698742
0.00699338
0.00698906
0.00697708
0.00695342
0.00691851
0.00687754
0.00682711
0.00677293
0.00671267
0.00664597
0.00657569
0.00650584
0.00642924
0.00635233
0.00627325
0.00619461
0.00611448
0.00603691
0.0059548
0.00587961
0.00579933
0.0057328
0.0056671
0.00569532
)
;

boundaryField
{
    inlet
    {
        type            turbulentMixingLengthDissipationRateInlet;
        mixingLength    0.5;
        phi             phi;
        k               k;
        value           nonuniform List<scalar> 
25
(
7.7439e-05
7.7439e-05
7.7439e-05
7.7439e-05
7.7439e-05
8.64044e-05
8.64044e-05
8.64044e-05
8.64044e-05
8.64044e-05
0.000105523
0.000105523
0.000105523
0.000105523
0.000105523
0.000136504
0.000136504
0.000136504
0.000136504
0.000136504
0.000181748
0.000181748
0.000181748
0.000181748
0.000181748
)
;
    }
    outlet
    {
        type            inletOutlet;
        inletValue      uniform 1;
        value           nonuniform List<scalar> 
25
(
0.00131989
0.00131286
0.00132182
0.00132864
0.00132738
0.000944752
0.000940938
0.00095686
0.000948174
0.000951245
0.00146275
0.00146605
0.0014665
0.0014652
0.00146861
0.00299778
0.0029993
0.00299763
0.00299896
0.00299884
0.00569684
0.00569655
0.00569544
0.00569656
0.00569532
)
;
    }
    side1
    {
        type            cyclicAMI;
        value           nonuniform List<scalar> 
250
(
8.74676e-05
8.64465e-05
0.000106136
0.000210622
0.00477389
0.000102118
8.73857e-05
0.00011422
0.000379206
0.00494892
0.000122997
9.07781e-05
0.000130613
0.000509455
0.00506995
0.000137396
9.77025e-05
0.000163488
0.000766868
0.00515167
0.000152854
0.000105679
0.000201064
0.00105315
0.00518891
0.000159511
0.000112424
0.000246712
0.00145427
0.00521412
0.000171908
0.000119727
0.000295516
0.00188396
0.00524898
0.000193517
0.000129909
0.000352473
0.00236081
0.00532005
0.000228853
0.000141725
0.000416703
0.00283158
0.005423
0.000272108
0.000155078
0.00049375
0.00327641
0.00555417
0.000321949
0.000168233
0.000580122
0.00366445
0.0057014
0.00036801
0.000182392
0.000679414
0.00398769
0.00585497
0.000408151
0.000198053
0.00078641
0.00425118
0.0059983
0.000434856
0.000214933
0.000897502
0.00447709
0.00613275
0.000450377
0.000233247
0.00100877
0.00467951
0.00625541
0.0004537
0.000252127
0.00111705
0.00486942
0.00636447
0.000454508
0.000273416
0.00122167
0.00504339
0.0064631
0.000457696
0.00029529
0.0013206
0.00520182
0.00655037
0.000465762
0.000319933
0.00141556
0.00533253
0.00663179
0.000480485
0.000344191
0.00150445
0.00544027
0.00670654
0.000502952
0.000370704
0.00158991
0.00550919
0.00677612
0.000526976
0.000396029
0.00166871
0.00555767
0.0068376
0.000554938
0.000423623
0.00174322
0.00555985
0.006889
0.000580102
0.000449748
0.00180865
0.00554828
0.00693358
0.000605699
0.000478456
0.00186853
0.00551866
0.00696456
0.000625985
0.00050511
0.00191812
0.00546511
0.0069874
0.000645255
0.000534389
0.0019598
0.00539695
0.00699351
0.000659014
0.00056034
0.00199121
0.00531921
0.00698925
0.00067255
0.000588887
0.00201469
0.00523167
0.00697732
0.000681327
0.000612651
0.00202832
0.00514025
0.00695332
0.000690241
0.000638616
0.00203596
0.00504132
0.00691875
0.000695519
0.000659439
0.00203462
0.00494244
0.00687777
0.000700852
0.000681044
0.00202907
0.00483601
0.00682689
0.000704253
0.000698316
0.00201798
0.00473159
0.00677291
0.000705236
0.000715392
0.00199975
0.00462295
0.00671127
0.000706992
0.000727982
0.00198024
0.00451579
0.00664702
0.000706776
0.00074106
0.00195542
0.00441191
0.00657567
0.000705177
0.000749403
0.00193128
0.0043071
0.00650501
0.000702878
0.000757473
0.00189973
0.0042079
0.0064296
0.000699456
0.0007629
0.00187467
0.00410606
0.00635346
0.000694684
0.000766699
0.00183785
0.00401259
0.00627488
0.00068745
0.000768883
0.00181228
0.00391294
0.00619646
0.000678204
0.000768304
0.0017705
0.00382497
0.00611615
0.000668958
0.000766086
0.00174702
0.00372826
0.00603876
0.000667971
0.000762005
0.00170029
0.00364499
0.00595665
0.000674798
0.000762694
0.00167643
0.00355022
0.00588142
0.000726259
0.000763694
0.0016285
0.00347142
0.00580105
0.000878013
0.000789946
0.00159851
0.00336864
0.00573447
0.00110136
0.000828916
0.00155681
0.00328124
0.00566825
0.00132363
0.000947999
0.00146568
0.00299831
0.00569608
)
;
    }
    side2
    {
        type            cyclicAMI;
        value           nonuniform List<scalar> 
250
(
8.74676e-05
8.64466e-05
0.000106136
0.000210627
0.00477389
0.000102118
8.73857e-05
0.00011422
0.000379211
0.00494892
0.000122997
9.07782e-05
0.000130613
0.00050946
0.00506995
0.000137396
9.77025e-05
0.000163489
0.000766874
0.00515168
0.000152854
0.000105679
0.000201065
0.00105316
0.00518891
0.000159511
0.000112424
0.000246713
0.00145428
0.00521412
0.000171908
0.000119727
0.000295517
0.00188396
0.00524899
0.000193517
0.00012991
0.000352475
0.00236082
0.00532006
0.000228853
0.000141725
0.000416705
0.00283158
0.005423
0.000272108
0.000155078
0.000493752
0.00327642
0.00555418
0.000321949
0.000168234
0.000580125
0.00366445
0.0057014
0.00036801
0.000182392
0.000679417
0.0039877
0.00585497
0.000408151
0.000198053
0.000786413
0.00425119
0.0059983
0.000434856
0.000214933
0.000897506
0.00447709
0.00613275
0.000450377
0.000233247
0.00100878
0.00467952
0.00625541
0.0004537
0.000252127
0.00111705
0.00486942
0.00636447
0.000454508
0.000273416
0.00122168
0.0050434
0.0064631
0.000457696
0.000295291
0.0013206
0.00520182
0.00655037
0.000465762
0.000319934
0.00141556
0.00533253
0.00663179
0.000480485
0.000344192
0.00150445
0.00544027
0.00670654
0.000502952
0.000370705
0.00158992
0.00550919
0.00677612
0.000526976
0.000396029
0.00166871
0.00555768
0.0068376
0.000554938
0.000423624
0.00174323
0.00555986
0.006889
0.000580102
0.000449749
0.00180866
0.00554828
0.00693358
0.000605699
0.000478457
0.00186854
0.00551867
0.00696456
0.000625985
0.00050511
0.00191813
0.00546512
0.0069874
0.000645255
0.00053439
0.0019598
0.00539696
0.00699351
0.000659014
0.000560341
0.00199122
0.00531922
0.00698925
0.00067255
0.000588888
0.0020147
0.00523167
0.00697732
0.000681327
0.000612652
0.00202833
0.00514025
0.00695332
0.000690241
0.000638617
0.00203597
0.00504132
0.00691875
0.000695519
0.000659439
0.00203463
0.00494245
0.00687777
0.000700852
0.000681044
0.00202907
0.00483601
0.00682689
0.000704253
0.000698317
0.00201798
0.00473159
0.00677291
0.000705236
0.000715393
0.00199975
0.00462296
0.00671127
0.000706992
0.000727982
0.00198024
0.00451579
0.00664703
0.000706776
0.000741061
0.00195542
0.00441192
0.00657567
0.000705177
0.000749403
0.00193128
0.00430711
0.00650501
0.000702878
0.000757474
0.00189973
0.0042079
0.00642961
0.000699456
0.000762901
0.00187467
0.00410606
0.00635347
0.000694684
0.0007667
0.00183785
0.00401259
0.00627488
0.00068745
0.000768884
0.00181228
0.00391294
0.00619646
0.000678204
0.000768305
0.0017705
0.00382497
0.00611615
0.000668958
0.000766086
0.00174702
0.00372826
0.00603877
0.000667971
0.000762005
0.00170029
0.00364499
0.00595665
0.000674798
0.000762695
0.00167643
0.00355023
0.00588143
0.000726259
0.000763695
0.00162851
0.00347143
0.00580105
0.000878013
0.000789946
0.00159851
0.00336865
0.00573447
0.00110136
0.000828916
0.00155682
0.00328125
0.00566825
0.00132363
0.000947999
0.00146568
0.00299831
0.00569608
)
;
    }
    walls
    {
        lowReCorrection 0;
        blending        stepwise;
        n               2;
        type            epsilonWallFunction;
        value           nonuniform List<scalar> 
250
(
0.00477389
0.00477389
0.00477389
0.00477389
0.00477389
0.00494892
0.00494894
0.00494891
0.00494892
0.00494893
0.00506996
0.00506997
0.00506996
0.00506993
0.00506994
0.00515168
0.00515171
0.00515175
0.00515173
0.00515168
0.00518888
0.00518886
0.00518887
0.00518898
0.00518894
0.00521411
0.00521403
0.00521396
0.00521404
0.00521413
0.00524901
0.00524896
0.00524887
0.00524885
0.00524896
0.00532015
0.00532025
0.00532014
0.00531997
0.00531996
0.00542298
0.00542313
0.00542328
0.00542315
0.00542302
0.00555407
0.00555396
0.00555442
0.00555448
0.00555428
0.00570127
0.00570096
0.00570085
0.00570134
0.00570154
0.00585506
0.00585472
0.0058543
0.00585415
0.00585488
0.00599853
0.0059988
0.00599854
0.0059982
0.00599808
0.00613281
0.00613311
0.00613305
0.00613283
0.00613268
0.00625533
0.00625557
0.00625572
0.00625562
0.00625549
0.00636438
0.00636436
0.00636468
0.00636469
0.00636456
0.00646307
0.00646303
0.00646301
0.00646305
0.00646312
0.00655034
0.00655027
0.00655026
0.00655028
0.00655039
0.00663184
0.00663187
0.00663175
0.00663169
0.00663173
0.00670666
0.0067067
0.00670667
0.0067065
0.00670641
0.00677612
0.00677641
0.00677637
0.00677627
0.00677612
0.00683754
0.00683758
0.0068379
0.00683784
0.00683766
0.00688894
0.00688886
0.00688885
0.00688908
0.00688906
0.00693358
0.00693354
0.00693373
0.00693361
0.00693358
0.00696451
0.00696434
0.0069642
0.00696473
0.00696461
0.00698737
0.00698734
0.00698709
0.00698696
0.00698742
0.00699364
0.00699352
0.0069935
0.00699338
0.00699338
0.00698944
0.00698937
0.00698931
0.00698923
0.00698906
0.00697757
0.00697751
0.00697742
0.00697741
0.00697708
0.00695323
0.00695368
0.00695338
0.00695378
0.00695342
0.00691899
0.00691868
0.00691825
0.00691859
0.00691851
0.006878
0.00687861
0.00687777
0.00687848
0.00687754
0.00682667
0.00682743
0.00682645
0.00682708
0.00682711
0.00677289
0.00677402
0.00677298
0.00677395
0.00677293
0.00670988
0.00671148
0.00670991
0.00671079
0.00671267
0.00664808
0.00664765
0.00664643
0.00664551
0.00664597
0.00657566
0.00657814
0.00657717
0.0065755
0.00657569
0.00650419
0.00650573
0.00650652
0.00650434
0.00650584
0.00642997
0.00642894
0.00643106
0.00642813
0.00642924
0.0063546
0.00635283
0.00635495
0.00635345
0.00635233
0.00627651
0.00627412
0.00627671
0.00627598
0.00627325
0.00619831
0.00619594
0.00619792
0.00619784
0.00619461
0.00611782
0.00611486
0.00611862
0.00611809
0.00611448
0.00604062
0.00603805
0.00603841
0.00604057
0.00603691
0.0059585
0.00595587
0.00595694
0.00595856
0.0059548
0.00588324
0.00588071
0.00588109
0.00588345
0.00587961
0.00580277
0.00580084
0.00579982
0.00580262
0.00579933
0.00573615
0.00573493
0.00573337
0.00573614
0.0057328
0.0056694
0.00566884
0.00566739
0.00566907
0.0056671
0.00569684
0.00569655
0.00569544
0.00569656
0.00569532
)
;
    }
}


// ************************************************************************* //
