/*--------------------------------*- C++ -*----------------------------------*\
| =========                 |                                                 |
| \\      /  F ield         | OpenFOAM: The Open Source CFD Toolbox           |
|  \\    /   O peration     | Version:  v2006                                 |
|   \\  /    A nd           | Website:  www.openfoam.com                      |
|    \\/     M anipulation  |                                                 |
\*---------------------------------------------------------------------------*/
FoamFile
{
    version     2.0;
    format      ascii;
    class       volScalarField;
    location    "227";
    object      k;
}
// * * * * * * * * * * * * * * * * * * * * * * * * * * * * * * * * * * * * * //

dimensions      [0 2 -2 0 0 0 0];


internalField   nonuniform List<scalar> 
1250
(
0.00389748
0.00403192
0.0041441
0.00422361
0.00425899
0.00426343
0.00428666
0.0043504
0.00448331
0.00464708
0.00480739
0.00491532
0.00497898
0.00497124
0.00494205
0.00488075
0.00481006
0.00474488
0.00469772
0.00466493
0.0046487
0.00463757
0.00463105
0.00461755
0.00460139
0.0045732
0.00454066
0.00449652
0.00445372
0.00439841
0.00434998
0.0042894
0.00423659
0.00417579
0.00411844
0.00405641
0.00399557
0.00393145
0.00387746
0.00382104
0.00375994
0.00368751
0.00358903
0.00349831
0.00346086
0.00349547
0.00394281
0.00491112
0.00612547
0.00701206
0.00389748
0.00403193
0.0041441
0.0042236
0.00425899
0.00426343
0.00428667
0.0043504
0.00448331
0.00464708
0.00480741
0.00491532
0.00497898
0.00497123
0.00494205
0.00488076
0.00481007
0.00474488
0.00469771
0.00466492
0.0046487
0.00463757
0.00463105
0.0046176
0.00460139
0.00457327
0.0045407
0.00449656
0.00445365
0.00439847
0.00434998
0.0042893
0.00423666
0.00417578
0.00411846
0.00405661
0.00399539
0.0039315
0.00387763
0.00382113
0.00376006
0.00368763
0.00359032
0.00350014
0.00346433
0.00349677
0.00389381
0.00489315
0.00612193
0.0070103
0.00389748
0.00403193
0.0041441
0.00422361
0.00425899
0.00426343
0.00428667
0.0043504
0.0044833
0.00464708
0.0048074
0.00491534
0.00497899
0.00497124
0.00494205
0.00488075
0.00481006
0.00474488
0.00469771
0.00466493
0.0046487
0.00463757
0.00463105
0.00461759
0.00460138
0.00457324
0.00454083
0.00449655
0.00445364
0.00439845
0.00435
0.00428925
0.00423661
0.00417579
0.00411847
0.00405667
0.00399558
0.00393151
0.00387763
0.00382114
0.00375979
0.00368758
0.00359028
0.00349366
0.00346833
0.0035025
0.00394037
0.00483721
0.00607316
0.00697164
0.00389747
0.00403192
0.0041441
0.00422361
0.00425899
0.00426343
0.00428666
0.0043504
0.00448331
0.00464708
0.0048074
0.00491534
0.00497899
0.00497124
0.00494205
0.00488076
0.00481006
0.00474488
0.00469772
0.00466493
0.00464869
0.00463757
0.00463105
0.00461756
0.00460136
0.00457316
0.00454079
0.00449653
0.00445363
0.0043984
0.00434991
0.00428918
0.00423647
0.00417568
0.0041184
0.0040564
0.0039953
0.00393147
0.00387743
0.00382098
0.00375939
0.00368759
0.00359169
0.00349596
0.003461
0.00348631
0.00396023
0.00483149
0.00602687
0.00693601
0.00389747
0.00403193
0.0041441
0.0042236
0.00425899
0.00426343
0.00428666
0.0043504
0.00448331
0.00464708
0.00480739
0.00491533
0.00497899
0.00497124
0.00494205
0.00488076
0.00481006
0.00474488
0.00469772
0.00466493
0.0046487
0.00463757
0.00463105
0.00461758
0.0046014
0.00457318
0.00454075
0.00449654
0.00445361
0.00439838
0.00434998
0.00428923
0.00423653
0.00417573
0.00411843
0.00405642
0.00399536
0.00393144
0.00387736
0.00382094
0.00375943
0.00368692
0.00359037
0.00349395
0.00346921
0.00349773
0.00397176
0.00488029
0.00607829
0.00695808
0.00409845
0.00409938
0.0041087
0.00413032
0.00415691
0.0041708
0.00418598
0.00420789
0.0042336
0.00426015
0.00428065
0.00430241
0.00432265
0.00434516
0.00436439
0.00438552
0.00440482
0.00442565
0.00444502
0.00446302
0.00447879
0.00449146
0.00450305
0.00451143
0.00451918
0.00452386
0.00452699
0.00452622
0.0045233
0.00451552
0.00450622
0.0044894
0.00446963
0.00444616
0.00441779
0.00438161
0.00435135
0.00430458
0.00426593
0.00421852
0.00417256
0.00412093
0.00406577
0.00398975
0.00392434
0.00386763
0.00387788
0.00397111
0.00420641
0.00481152
0.00409845
0.00409938
0.0041087
0.0041303
0.00415688
0.0041708
0.00418604
0.00420788
0.00423365
0.00426015
0.00428067
0.00430241
0.00432265
0.00434518
0.00436439
0.00438561
0.00440482
0.00442565
0.00444506
0.00446297
0.00447877
0.0044914
0.00450304
0.00451143
0.00451917
0.00452383
0.00452704
0.00452621
0.00452323
0.00451572
0.00450636
0.0044897
0.00446958
0.00444614
0.00441814
0.00438179
0.0043513
0.00430424
0.00426585
0.0042185
0.00417268
0.00412105
0.00406574
0.0039944
0.00391034
0.00387104
0.00388846
0.00403942
0.00420858
0.00485399
0.00409845
0.00409938
0.0041087
0.00413032
0.00415691
0.0041708
0.00418599
0.00420789
0.00423361
0.00426014
0.0042807
0.00430242
0.00432262
0.00434522
0.00436439
0.00438555
0.00440481
0.00442573
0.00444507
0.00446305
0.00447879
0.00449146
0.00450304
0.00451142
0.00451918
0.00452384
0.00452699
0.00452625
0.00452312
0.0045156
0.00450631
0.0044895
0.00446964
0.00444605
0.0044178
0.00438158
0.00435147
0.00430458
0.00426584
0.00421841
0.00417198
0.00412194
0.00406149
0.00399701
0.00391459
0.0038592
0.0038578
0.00396344
0.00420308
0.0048125
0.00409845
0.00409938
0.0041087
0.00413031
0.00415688
0.00417079
0.00418604
0.00420791
0.00423365
0.00426015
0.00428068
0.00430242
0.00432262
0.00434522
0.00436439
0.00438562
0.00440481
0.00442565
0.00444506
0.00446299
0.0044788
0.00449143
0.00450304
0.00451143
0.00451917
0.00452384
0.00452702
0.00452619
0.00452324
0.00451546
0.00450616
0.00448964
0.00446951
0.00444606
0.00441811
0.00438163
0.00435123
0.00430433
0.00426578
0.00421833
0.00417159
0.0041223
0.00406121
0.00399555
0.00392227
0.00384393
0.00383129
0.00390346
0.00423008
0.00486945
0.00409845
0.00409938
0.0041087
0.0041303
0.00415688
0.00417079
0.00418607
0.00420791
0.00423361
0.00426014
0.00428065
0.00430241
0.00432263
0.00434516
0.00436439
0.00438559
0.00440482
0.00442571
0.00444506
0.00446304
0.0044788
0.0044914
0.00450304
0.00451143
0.00451918
0.00452384
0.00452702
0.00452625
0.00452312
0.00451558
0.00450617
0.00448965
0.00446949
0.00444606
0.00441786
0.00438165
0.00435098
0.00430395
0.00426583
0.00421822
0.004172
0.00412074
0.00406306
0.00398828
0.00392716
0.00384568
0.00383441
0.00393073
0.00417199
0.00480808
0.00468227
0.00471579
0.00479889
0.00494288
0.00508904
0.00520739
0.00530941
0.00541015
0.00552734
0.00566758
0.00582974
0.0060103
0.00619976
0.00638278
0.00655989
0.00671714
0.0068672
0.00699659
0.00712337
0.00723043
0.00733695
0.00742334
0.00750772
0.00757095
0.00763186
0.00766489
0.00769442
0.00769694
0.00768964
0.00767001
0.00763197
0.00758767
0.0075213
0.00745601
0.0073728
0.00729254
0.00719838
0.00711029
0.00700053
0.0069109
0.00679471
0.006699
0.0065753
0.00649016
0.00634201
0.00626333
0.00610334
0.00602452
0.00582281
0.0057543
0.00468227
0.00471579
0.00479898
0.00494275
0.00508904
0.00520748
0.00530928
0.00541007
0.00552734
0.00566762
0.00582975
0.00601018
0.0061997
0.00638255
0.0065598
0.00671698
0.00686723
0.00699646
0.00712338
0.00723023
0.00733688
0.00742335
0.00750772
0.00757096
0.00763186
0.00766508
0.00769459
0.00769677
0.00768936
0.00766982
0.00763188
0.00758723
0.00752074
0.00745691
0.0073719
0.00729159
0.00719874
0.00710935
0.00700148
0.00691191
0.00679586
0.00670047
0.00657442
0.00648883
0.00634165
0.00626522
0.00610182
0.00602412
0.00582551
0.00575755
0.00468227
0.00471579
0.00479895
0.00494278
0.00508902
0.00520761
0.00530932
0.00541008
0.00552728
0.00566768
0.00582984
0.00601022
0.00619968
0.00638259
0.00655976
0.00671695
0.0068672
0.00699662
0.00712344
0.00723034
0.00733684
0.00742341
0.00750769
0.007571
0.00763181
0.00766479
0.00769452
0.00769701
0.00768892
0.0076702
0.00763227
0.00758682
0.00752025
0.00745612
0.00737239
0.00729206
0.00719774
0.00710982
0.00700207
0.00691089
0.00679508
0.00670023
0.00657474
0.00649005
0.0063422
0.00626364
0.00610248
0.00602486
0.0058211
0.00580235
0.00468227
0.00471579
0.0047989
0.00494285
0.0050889
0.00520769
0.00530947
0.00541018
0.0055273
0.00566768
0.0058298
0.00601039
0.00619975
0.00638285
0.00655982
0.00671711
0.00686723
0.00699654
0.00712345
0.00723036
0.00733682
0.00742337
0.00750771
0.00757091
0.00763194
0.00766484
0.00769439
0.00769709
0.00768941
0.00766944
0.00763172
0.00758707
0.00751973
0.00745668
0.00737271
0.00729201
0.00719767
0.00710969
0.00700225
0.00691062
0.0067938
0.00669887
0.00657454
0.00649023
0.00634131
0.00626517
0.00610249
0.00602239
0.00582345
0.00576685
0.00468227
0.00471578
0.00479896
0.00494278
0.00508893
0.00520741
0.00530936
0.00541004
0.00552731
0.00566756
0.00582972
0.00601019
0.0061997
0.00638281
0.00655986
0.00671697
0.00686714
0.00699661
0.00712343
0.00723048
0.0073369
0.00742333
0.0075077
0.00757093
0.00763183
0.00766499
0.00769439
0.00769707
0.00768909
0.00767004
0.00763188
0.00758651
0.00752039
0.00745608
0.00737297
0.00729243
0.00719688
0.00710847
0.00700105
0.00691128
0.00679484
0.00669949
0.00657505
0.00648859
0.00634035
0.00626381
0.00610319
0.00602522
0.00582107
0.0058022
0.00559256
0.00576835
0.00613916
0.00682598
0.007618
0.00862606
0.0096455
0.0106957
0.0116622
0.0124912
0.0131649
0.0136502
0.0139983
0.014249
0.0144602
0.0146434
0.0148254
0.0149788
0.0151185
0.0152082
0.0152661
0.0152564
0.0152203
0.0151413
0.0150178
0.0148588
0.0146792
0.0144776
0.0142652
0.0140435
0.0138115
0.0135801
0.0133386
0.0131007
0.0128587
0.0126115
0.0123719
0.0121232
0.0118936
0.0116395
0.0114266
0.0111683
0.0109743
0.0107205
0.0105372
0.0102899
0.0101163
0.00986522
0.00967687
0.00914178
0.00559256
0.00576837
0.00613911
0.00682588
0.0076181
0.00862589
0.00964481
0.0106961
0.0116623
0.0124913
0.0131652
0.0136503
0.0139982
0.0142487
0.0144602
0.0146435
0.0148253
0.0149788
0.0151184
0.0152082
0.0152661
0.0152564
0.0152203
0.015141
0.0150168
0.0148602
0.0146773
0.0144784
0.0142646
0.0140426
0.0138121
0.0135809
0.0133386
0.0131001
0.0128572
0.0126106
0.0123702
0.012121
0.0118933
0.0116387
0.0114256
0.0111698
0.0109728
0.0107187
0.0105355
0.0102883
0.0101172
0.0098639
0.00967882
0.00914006
0.00559257
0.00576835
0.00613922
0.00682572
0.00761803
0.00862591
0.00964481
0.0106955
0.0116619
0.0124914
0.0131654
0.0136505
0.0139982
0.0142487
0.0144602
0.0146435
0.0148252
0.0149789
0.0151187
0.0152082
0.0152661
0.0152564
0.0152203
0.0151421
0.0150157
0.0148589
0.0146795
0.0144766
0.0142638
0.0140435
0.0138111
0.0135814
0.0133376
0.0130984
0.0128577
0.0126112
0.0123714
0.0121226
0.0118915
0.0116372
0.0114232
0.0111677
0.0109732
0.0107194
0.010536
0.0102907
0.0101166
0.00986293
0.00967678
0.00914122
0.00559256
0.00576836
0.00613915
0.00682584
0.00761787
0.00862651
0.0096453
0.0106956
0.0116619
0.0124909
0.0131651
0.0136508
0.0139985
0.0142487
0.0144601
0.0146436
0.0148253
0.0149787
0.0151186
0.0152083
0.0152661
0.0152563
0.0152203
0.0151416
0.015018
0.0148574
0.0146787
0.0144783
0.0142647
0.0140431
0.0138099
0.0135814
0.0133389
0.0130995
0.0128558
0.0126093
0.0123692
0.0121224
0.0118927
0.0116387
0.0114245
0.0111681
0.0109734
0.0107193
0.0105363
0.0102909
0.0101178
0.0098643
0.0096779
0.00914024
0.00559256
0.00576836
0.00613909
0.00682583
0.00761794
0.00862582
0.00964526
0.0106957
0.0116621
0.012491
0.0131647
0.0136506
0.0139986
0.0142488
0.01446
0.0146437
0.0148254
0.0149788
0.0151187
0.0152083
0.0152661
0.0152564
0.0152203
0.0151412
0.0150179
0.0148593
0.0146782
0.0144753
0.0142641
0.0140435
0.013811
0.0135804
0.013339
0.0131
0.012857
0.0126108
0.0123692
0.0121209
0.0118907
0.0116366
0.0114249
0.0111689
0.0109724
0.0107175
0.0105342
0.0102894
0.0101162
0.00986431
0.00967858
0.00914143
0.0068462
0.00701252
0.00712642
0.00720277
0.00723743
0.00726085
0.00729321
0.00735888
0.00745357
0.00757301
0.00770645
0.00784422
0.00797208
0.00809041
0.00819798
0.00829279
0.00837846
0.00845358
0.00852365
0.00858757
0.00864678
0.00869892
0.00874246
0.00878017
0.00880633
0.00882556
0.00883091
0.0088274
0.00881747
0.00879723
0.00876815
0.00873382
0.00869048
0.00864491
0.00859153
0.00853878
0.00847701
0.00841538
0.00835152
0.00828608
0.00821833
0.00815003
0.00807932
0.00801138
0.00793868
0.00787161
0.00779973
0.00773965
0.00767922
0.00770408
0.0068462
0.00701253
0.00712643
0.0072028
0.00723741
0.00726077
0.00729316
0.00735895
0.00745374
0.00757293
0.00770619
0.00784391
0.0079723
0.00809065
0.00819819
0.00829277
0.00837842
0.0084535
0.00852367
0.00858759
0.00864704
0.00869896
0.0087424
0.00878014
0.00880618
0.00882553
0.00883083
0.00882737
0.00881748
0.00879758
0.00876796
0.00873429
0.00869107
0.00864584
0.00859283
0.00853844
0.00847902
0.00841679
0.00835072
0.00828462
0.00821627
0.0081481
0.00807671
0.00800916
0.00793648
0.00786937
0.00779833
0.00773878
0.00767889
0.00770384
0.0068462
0.00701251
0.00712641
0.00720284
0.00723743
0.0072607
0.00729308
0.00735885
0.00745383
0.00757338
0.00770612
0.00784354
0.00797208
0.00809059
0.00819832
0.00829307
0.00837842
0.00845351
0.00852357
0.00858756
0.008647
0.00869924
0.0087424
0.00878032
0.00880606
0.00882533
0.0088308
0.00882731
0.00881741
0.00879737
0.00876762
0.00873368
0.00869029
0.00864499
0.00859158
0.00853749
0.00847824
0.00841745
0.00835257
0.00828643
0.00821855
0.00814961
0.00808012
0.00800952
0.00793681
0.00786941
0.00779695
0.00773687
0.00767721
0.00770248
0.00684621
0.00701251
0.00712639
0.00720282
0.00723753
0.00726078
0.00729306
0.00735869
0.00745372
0.00757338
0.00770658
0.00784343
0.00797178
0.0080904
0.00819822
0.00829306
0.00837846
0.00845354
0.00852351
0.00858742
0.0086469
0.00869919
0.00874258
0.00878022
0.0088065
0.00882524
0.00883068
0.00882724
0.00881737
0.00879769
0.0087678
0.00873429
0.00869059
0.00864579
0.00859217
0.00853668
0.00847676
0.00841571
0.00835013
0.00828521
0.00821799
0.0081496
0.00807964
0.00801141
0.00793868
0.00787177
0.00779957
0.00773959
0.0076789
0.00770375
0.00684621
0.00701253
0.0071264
0.00720277
0.00723749
0.00726087
0.00729317
0.00735869
0.00745361
0.00757321
0.0077067
0.00784409
0.0079717
0.00809027
0.00819811
0.00829295
0.00837851
0.00845363
0.00852358
0.00858734
0.00864678
0.00869902
0.00874256
0.00878019
0.00880641
0.0088256
0.00883072
0.00882713
0.00881706
0.00879742
0.00876777
0.00873348
0.00869088
0.00864497
0.00859378
0.0085371
0.0084769
0.00841684
0.00835097
0.00828423
0.00821571
0.00814689
0.0080765
0.00800825
0.00793545
0.00786846
0.00779668
0.00773657
0.00767702
0.00770238
)
;

boundaryField
{
    inlet
    {
        type            turbulentIntensityKineticEnergyInlet;
        intensity       0.05;
        value           nonuniform List<scalar> 
25
(
0.00381504
0.00381504
0.00381504
0.00381504
0.00381504
0.00410408
0.00410408
0.00410408
0.00410408
0.00410408
0.00468911
0.00468911
0.00468911
0.00468911
0.00468911
0.005567
0.005567
0.005567
0.005567
0.005567
0.0067376
0.0067376
0.00673761
0.00673761
0.00673761
)
;
    }
    outlet
    {
        type            inletOutlet;
        inletValue      uniform 1;
        value           nonuniform List<scalar> 
25
(
0.00701206
0.0070103
0.00697164
0.00693601
0.00695808
0.00481152
0.00485399
0.0048125
0.00486945
0.00480808
0.0057543
0.00575755
0.00580235
0.00576685
0.0058022
0.00914178
0.00914006
0.00914122
0.00914024
0.00914143
0.00770408
0.00770384
0.00770248
0.00770375
0.00770238
)
;
    }
    side1
    {
        type            cyclicAMI;
        value           nonuniform List<scalar> 
250
(
0.00389748
0.00409845
0.00468227
0.00559256
0.0068462
0.00403192
0.00409938
0.00471579
0.00576835
0.00701252
0.0041441
0.0041087
0.00479893
0.00613912
0.00712641
0.00422361
0.00413031
0.00494283
0.0068259
0.00720277
0.00425899
0.0041569
0.00508899
0.00761797
0.00723746
0.00426343
0.00417079
0.0052074
0.00862594
0.00726086
0.00428666
0.00418602
0.00530939
0.00964538
0.00729319
0.0043504
0.0042079
0.00541009
0.0106957
0.00735879
0.00448331
0.0042336
0.00552733
0.0116621
0.0074536
0.00464708
0.00426014
0.00566757
0.0124911
0.00757311
0.00480739
0.00428065
0.00582973
0.0131648
0.00770658
0.00491532
0.00430241
0.00601024
0.0136504
0.00784416
0.00497899
0.00432264
0.00619973
0.0139984
0.00797189
0.00497124
0.00434516
0.0063828
0.0142489
0.00809034
0.00494205
0.00436439
0.00655987
0.0144601
0.00819805
0.00488075
0.00438556
0.00671705
0.0146436
0.00829288
0.00481006
0.00440482
0.00686717
0.0148254
0.00837849
0.00474488
0.00442568
0.0069966
0.0149788
0.00845361
0.00469772
0.00444504
0.0071234
0.0151186
0.00852362
0.00466493
0.00446303
0.00723046
0.0152083
0.00858746
0.0046487
0.0044788
0.00733693
0.0152661
0.00864679
0.00463757
0.00449143
0.00742333
0.0152564
0.00869898
0.00463105
0.00450304
0.00750771
0.0152203
0.00874252
0.00461757
0.00451143
0.00757094
0.0151412
0.00878018
0.0046014
0.00451918
0.00763184
0.0150178
0.00880638
0.00457319
0.00452385
0.00766494
0.014859
0.00882558
0.0045407
0.004527
0.00769441
0.0146787
0.00883082
0.00449653
0.00452624
0.007697
0.0144764
0.00882727
0.00445366
0.00452321
0.00768936
0.0142647
0.00881727
0.0043984
0.00451555
0.00767003
0.0140435
0.00879733
0.00434998
0.0045062
0.00763192
0.0138113
0.00876797
0.00428932
0.00448953
0.00758709
0.0135802
0.00873366
0.00423656
0.00446956
0.00752084
0.0133388
0.00869069
0.00417576
0.00444611
0.00745605
0.0131003
0.00864495
0.00411843
0.00441782
0.00737288
0.0128579
0.00859266
0.00405641
0.00438163
0.00729248
0.0126112
0.00853795
0.00399546
0.00435117
0.00719763
0.0123706
0.00847696
0.00393144
0.00430427
0.00710938
0.012122
0.00841612
0.00387741
0.00426588
0.00700079
0.0118922
0.00835125
0.00382099
0.00421837
0.00691109
0.011638
0.00828516
0.00375969
0.00417228
0.00679477
0.0114258
0.00821703
0.00368721
0.00412083
0.00669924
0.0111686
0.00814847
0.0035897
0.00406442
0.00657517
0.0109733
0.00807791
0.00349613
0.00398901
0.00648938
0.010719
0.00800982
0.00346503
0.00392575
0.00634118
0.0105357
0.00793707
0.0034966
0.00385665
0.00626357
0.0102897
0.00787004
0.00395729
0.00385615
0.00610326
0.0101163
0.00779821
0.00489571
0.00395092
0.00602487
0.00986476
0.00773811
0.00610188
0.0041892
0.00582194
0.00967772
0.00767812
0.00698507
0.0048098
0.00577825
0.0091416
0.00770323
)
;
    }
    side2
    {
        type            cyclicAMI;
        value           nonuniform List<scalar> 
250
(
0.00389748
0.00409845
0.00468227
0.00559256
0.0068462
0.00403192
0.00409938
0.00471579
0.00576836
0.00701252
0.0041441
0.0041087
0.00479893
0.00613912
0.00712641
0.00422361
0.00413031
0.00494283
0.0068259
0.00720277
0.00425899
0.0041569
0.00508899
0.00761797
0.00723746
0.00426343
0.00417079
0.0052074
0.00862594
0.00726086
0.00428666
0.00418602
0.00530939
0.00964538
0.00729319
0.0043504
0.0042079
0.0054101
0.0106957
0.00735879
0.00448331
0.0042336
0.00552733
0.0116621
0.00745359
0.00464708
0.00426014
0.00566758
0.0124911
0.00757311
0.00480739
0.00428065
0.00582974
0.0131648
0.00770658
0.00491532
0.00430241
0.00601025
0.0136504
0.00784416
0.00497899
0.00432264
0.00619974
0.0139984
0.00797189
0.00497124
0.00434516
0.0063828
0.0142489
0.00809034
0.00494205
0.00436439
0.00655988
0.0144601
0.00819805
0.00488075
0.00438556
0.00671706
0.0146436
0.00829287
0.00481006
0.00440482
0.00686718
0.0148254
0.00837849
0.00474488
0.00442568
0.00699661
0.0149788
0.0084536
0.00469772
0.00444504
0.00712341
0.0151186
0.00852362
0.00466493
0.00446304
0.00723046
0.0152083
0.00858746
0.0046487
0.0044788
0.00733693
0.0152661
0.00864678
0.00463757
0.00449143
0.00742334
0.0152564
0.00869897
0.00463105
0.00450305
0.00750772
0.0152203
0.00874251
0.00461757
0.00451143
0.00757095
0.0151412
0.00878018
0.0046014
0.00451918
0.00763185
0.0150178
0.00880637
0.00457319
0.00452385
0.00766495
0.014859
0.00882558
0.0045407
0.004527
0.00769441
0.0146787
0.00883081
0.00449653
0.00452624
0.00769701
0.0144764
0.00882726
0.00445366
0.00452321
0.00768937
0.0142647
0.00881726
0.0043984
0.00451555
0.00767003
0.0140435
0.00879733
0.00434998
0.0045062
0.00763193
0.0138112
0.00876796
0.00428932
0.00448953
0.00758709
0.0135802
0.00873365
0.00423656
0.00446956
0.00752085
0.0133388
0.00869068
0.00417576
0.00444611
0.00745605
0.0131003
0.00864494
0.00411843
0.00441782
0.00737289
0.0128579
0.00859266
0.00405641
0.00438163
0.00729249
0.0126112
0.00853794
0.00399546
0.00435117
0.00719764
0.0123706
0.00847695
0.00393144
0.00430427
0.00710939
0.012122
0.00841611
0.00387741
0.00426588
0.00700079
0.0118922
0.00835125
0.00382099
0.00421837
0.00691109
0.011638
0.00828515
0.00375969
0.00417228
0.00679478
0.0114258
0.00821702
0.00368721
0.00412084
0.00669925
0.0111686
0.00814846
0.0035897
0.00406442
0.00657518
0.0109733
0.00807791
0.00349613
0.00398901
0.00648938
0.010719
0.00800982
0.00346503
0.00392575
0.00634119
0.0105357
0.00793706
0.0034966
0.00385665
0.00626357
0.0102897
0.00787004
0.00395729
0.00385615
0.00610327
0.0101163
0.0077982
0.00489571
0.00395092
0.00602488
0.00986476
0.00773811
0.00610188
0.0041892
0.00582194
0.00967772
0.00767812
0.00698507
0.0048098
0.00577825
0.0091416
0.00770323
)
;
    }
    walls
    {
        type            kqRWallFunction;
        value           nonuniform List<scalar> 
250
(
0.0068462
0.0068462
0.0068462
0.00684621
0.00684621
0.00701252
0.00701253
0.00701251
0.00701251
0.00701253
0.00712642
0.00712643
0.00712641
0.00712639
0.0071264
0.00720277
0.0072028
0.00720284
0.00720282
0.00720277
0.00723743
0.00723741
0.00723743
0.00723753
0.00723749
0.00726085
0.00726077
0.0072607
0.00726078
0.00726087
0.00729321
0.00729316
0.00729308
0.00729306
0.00729317
0.00735888
0.00735895
0.00735885
0.00735869
0.00735869
0.00745357
0.00745374
0.00745383
0.00745372
0.00745361
0.00757301
0.00757293
0.00757338
0.00757338
0.00757321
0.00770645
0.00770619
0.00770612
0.00770658
0.0077067
0.00784422
0.00784391
0.00784354
0.00784343
0.00784409
0.00797208
0.0079723
0.00797208
0.00797178
0.0079717
0.00809041
0.00809065
0.00809059
0.0080904
0.00809027
0.00819798
0.00819819
0.00819832
0.00819822
0.00819811
0.00829279
0.00829277
0.00829307
0.00829306
0.00829295
0.00837846
0.00837842
0.00837842
0.00837846
0.00837851
0.00845358
0.0084535
0.00845351
0.00845354
0.00845363
0.00852365
0.00852367
0.00852357
0.00852351
0.00852358
0.00858757
0.00858759
0.00858756
0.00858742
0.00858734
0.00864678
0.00864704
0.008647
0.0086469
0.00864678
0.00869892
0.00869896
0.00869924
0.00869919
0.00869902
0.00874246
0.0087424
0.0087424
0.00874258
0.00874256
0.00878017
0.00878014
0.00878032
0.00878022
0.00878019
0.00880633
0.00880618
0.00880606
0.0088065
0.00880641
0.00882556
0.00882553
0.00882533
0.00882524
0.0088256
0.00883091
0.00883083
0.0088308
0.00883068
0.00883072
0.0088274
0.00882737
0.00882731
0.00882724
0.00882713
0.00881747
0.00881748
0.00881741
0.00881737
0.00881706
0.00879723
0.00879758
0.00879737
0.00879769
0.00879742
0.00876815
0.00876796
0.00876762
0.0087678
0.00876777
0.00873382
0.00873429
0.00873368
0.00873429
0.00873348
0.00869048
0.00869107
0.00869029
0.00869059
0.00869088
0.00864491
0.00864584
0.00864499
0.00864579
0.00864497
0.00859153
0.00859283
0.00859158
0.00859217
0.00859378
0.00853878
0.00853844
0.00853749
0.00853668
0.0085371
0.00847701
0.00847902
0.00847824
0.00847676
0.0084769
0.00841538
0.00841679
0.00841745
0.00841571
0.00841684
0.00835152
0.00835072
0.00835257
0.00835013
0.00835097
0.00828608
0.00828462
0.00828643
0.00828521
0.00828423
0.00821833
0.00821627
0.00821855
0.00821799
0.00821571
0.00815003
0.0081481
0.00814961
0.0081496
0.00814689
0.00807932
0.00807671
0.00808012
0.00807964
0.0080765
0.00801138
0.00800916
0.00800952
0.00801141
0.00800825
0.00793868
0.00793648
0.00793681
0.00793868
0.00793545
0.00787161
0.00786937
0.00786941
0.00787177
0.00786846
0.00779973
0.00779833
0.00779695
0.00779957
0.00779668
0.00773965
0.00773878
0.00773687
0.00773959
0.00773657
0.00767922
0.00767889
0.00767721
0.0076789
0.00767702
0.00770408
0.00770384
0.00770248
0.00770375
0.00770238
)
;
    }
}


// ************************************************************************* //
