/*--------------------------------*- C++ -*----------------------------------*\
| =========                 |                                                 |
| \\      /  F ield         | OpenFOAM: The Open Source CFD Toolbox           |
|  \\    /   O peration     | Version:  v2006                                 |
|   \\  /    A nd           | Website:  www.openfoam.com                      |
|    \\/     M anipulation  |                                                 |
\*---------------------------------------------------------------------------*/
FoamFile
{
    version     2.0;
    format      ascii;
    class       volScalarField;
    location    "227";
    object      nut;
}
// * * * * * * * * * * * * * * * * * * * * * * * * * * * * * * * * * * * * * //

dimensions      [0 2 -1 0 0 0 0];


internalField   nonuniform List<scalar> 
1250
(
0.000618391
0.000651459
0.000685198
0.00070988
0.000710445
0.000681757
0.000668454
0.000674103
0.000693641
0.000721969
0.000755533
0.000785944
0.000810451
0.000822078
0.000826155
0.000819673
0.000803739
0.000785257
0.000769797
0.000759044
0.000752512
0.000749754
0.000748968
0.000749415
0.000749802
0.000749721
0.000748434
0.000745998
0.000743146
0.000738646
0.000735096
0.000729942
0.000726069
0.000721135
0.000716917
0.000711668
0.000706801
0.000700606
0.000697229
0.000691689
0.000686708
0.000677566
0.000664173
0.000650194
0.000648069
0.000656067
0.000748352
0.000924216
0.00112982
0.00141153
0.000618388
0.00065146
0.000685202
0.000709876
0.000710453
0.000681757
0.000668454
0.000674102
0.00069364
0.000721966
0.000755532
0.000785946
0.000810455
0.000822076
0.000826149
0.000819671
0.000803737
0.000785257
0.000769796
0.000759043
0.000752509
0.00074976
0.000748977
0.00074944
0.000749819
0.000749769
0.000748472
0.000746041
0.000743195
0.000738725
0.000735168
0.000729948
0.000726151
0.000721197
0.000717006
0.000711748
0.000706831
0.000700689
0.000697327
0.00069175
0.000686854
0.000677589
0.000664494
0.000650665
0.000648381
0.000656217
0.000738527
0.000921412
0.00113042
0.0014144
0.00061839
0.000651458
0.000685201
0.000709873
0.000710453
0.00068176
0.000668457
0.000674104
0.00069364
0.000721964
0.00075553
0.000785946
0.000810458
0.00082208
0.000826148
0.000819669
0.000803735
0.000785255
0.000769794
0.000759042
0.000752507
0.000749756
0.000748976
0.000749446
0.000749827
0.000749787
0.000748527
0.000746085
0.000743228
0.000738791
0.000735266
0.000730024
0.000726192
0.0007213
0.000717105
0.000711829
0.000706935
0.000700761
0.000697336
0.000691828
0.000686823
0.000677515
0.000664427
0.000649173
0.00064948
0.000657532
0.000749348
0.000910252
0.00112055
0.00140606
0.000618388
0.000651457
0.000685202
0.00070988
0.000710446
0.000681754
0.000668457
0.000674105
0.000693642
0.000721966
0.000755531
0.00078594
0.000810454
0.000822081
0.000826149
0.000819668
0.000803736
0.000785254
0.000769795
0.000759043
0.000752507
0.000749758
0.00074898
0.000749449
0.000749835
0.000749792
0.000748541
0.000746112
0.000743258
0.000738818
0.000735287
0.000730068
0.000726211
0.000721296
0.000717108
0.000711807
0.000706886
0.000700768
0.000697318
0.000691811
0.000686685
0.000677494
0.000664783
0.000649618
0.00064803
0.000654209
0.000752815
0.000908797
0.00110995
0.00139638
0.000618388
0.000651459
0.000685198
0.000709883
0.000710442
0.000681757
0.000668456
0.000674104
0.000693644
0.00072197
0.000755533
0.00078594
0.000810451
0.000822083
0.000826153
0.000819672
0.000803736
0.000785257
0.000769798
0.000759044
0.000752513
0.000749756
0.000748973
0.000749437
0.000749825
0.000749763
0.000748501
0.000746067
0.000743198
0.000738726
0.000735224
0.000730015
0.000726145
0.00072124
0.000717022
0.000711755
0.000706843
0.000700687
0.000697243
0.000691735
0.000686632
0.000677389
0.000664511
0.000649099
0.00064984
0.000656928
0.000755249
0.00091838
0.00112049
0.00139976
0.000661894
0.000629454
0.00062803
0.000649157
0.000656707
0.000656192
0.000664856
0.00066904
0.00067563
0.00067899
0.000672578
0.000662473
0.000650074
0.0006408
0.000635356
0.000636152
0.000641755
0.000651518
0.000662883
0.000676052
0.00069015
0.000705167
0.000718852
0.000729598
0.000737795
0.00074442
0.000750719
0.000756856
0.000763172
0.00076918
0.000775452
0.000780533
0.000785243
0.000789075
0.000791808
0.000792538
0.000794002
0.000791678
0.000790875
0.000787327
0.000784956
0.000779555
0.000775727
0.000764689
0.00075852
0.000750851
0.000763923
0.000783477
0.000912294
0.00111825
0.00066189
0.000629465
0.000628032
0.000649169
0.000656675
0.000656187
0.000664871
0.000669049
0.000675639
0.000679002
0.00067258
0.000662466
0.000650077
0.000640809
0.000635359
0.000636156
0.000641748
0.000651525
0.000662896
0.000676051
0.000690144
0.000705159
0.00071886
0.000729613
0.000737812
0.000744446
0.000750766
0.000756878
0.000763201
0.000769268
0.000775534
0.000780673
0.000785334
0.000789116
0.000791939
0.000792667
0.000794098
0.000791708
0.000790946
0.000787417
0.000785177
0.000779669
0.000775812
0.000766102
0.000755296
0.00075154
0.000766564
0.00080104
0.00091677
0.00113154
0.000661896
0.000629464
0.000628028
0.000649181
0.000656683
0.000656167
0.000664858
0.000669054
0.000675635
0.000678997
0.000672577
0.00066247
0.000650067
0.000640819
0.000635366
0.000636152
0.000641737
0.000651536
0.000662899
0.00067607
0.00069015
0.000705164
0.000718859
0.000729619
0.000737819
0.000744461
0.000750774
0.000756902
0.00076319
0.000769281
0.000775567
0.000780665
0.000785423
0.000789171
0.000791881
0.000792665
0.000794124
0.000791786
0.000790939
0.000787333
0.000785086
0.000779911
0.000774683
0.000766635
0.00075629
0.00074847
0.000758876
0.000781395
0.00091278
0.00111649
0.000661886
0.000629466
0.000628022
0.000649179
0.000656707
0.000656158
0.000664856
0.000669053
0.000675649
0.000678994
0.000672571
0.00066248
0.000650066
0.000640815
0.000635369
0.000636172
0.000641736
0.000651519
0.000662891
0.000676063
0.000690152
0.000705162
0.000718852
0.000729616
0.000737802
0.000744435
0.000750746
0.00075685
0.000763139
0.000769158
0.000775436
0.000780567
0.000785267
0.000789081
0.000791809
0.00079252
0.000793968
0.000791624
0.000790857
0.000787166
0.000784883
0.000779963
0.000774648
0.00076612
0.000758027
0.000745098
0.000753548
0.000768413
0.000918859
0.0011345
0.000661908
0.000629457
0.000628021
0.000649163
0.000656723
0.000656177
0.000664859
0.000669044
0.000675638
0.000678987
0.000672573
0.000662482
0.000650069
0.000640802
0.00063536
0.000636176
0.000641746
0.000651527
0.000662889
0.000676064
0.000690158
0.000705158
0.000718836
0.000729597
0.000737787
0.000744416
0.000750726
0.000756865
0.000763114
0.000769172
0.000775448
0.000780576
0.00078527
0.000789103
0.000791862
0.000792547
0.000793971
0.000791521
0.000790927
0.000787171
0.000784883
0.00077963
0.000775113
0.000764312
0.000759119
0.000745324
0.000754271
0.000776863
0.000908396
0.001117
0.000922113
0.00113365
0.000936174
0.000881573
0.000829003
0.000788336
0.000766132
0.000763841
0.000773226
0.000795226
0.000833348
0.000885872
0.000946273
0.00101021
0.00107866
0.00114739
0.00121426
0.00126805
0.00130371
0.00132191
0.00133584
0.00134879
0.00136706
0.00138656
0.00141061
0.00143187
0.00145513
0.00147306
0.00148963
0.00150254
0.00151123
0.00151735
0.00151833
0.00151843
0.00151535
0.00151215
0.00150603
0.00150141
0.00149112
0.00148635
0.00147378
0.0014675
0.00145173
0.00144854
0.00142414
0.00142255
0.00138489
0.00137706
0.0013219
0.00140675
0.000922114
0.00113366
0.000936173
0.000881557
0.000829039
0.000788345
0.000766095
0.000763836
0.000773246
0.000795232
0.000833343
0.000885852
0.00094626
0.00101017
0.00107866
0.00114738
0.00121424
0.00126799
0.00130369
0.00132187
0.00133584
0.00134879
0.00136706
0.00138655
0.00141057
0.00143186
0.00145515
0.00147298
0.00148952
0.00150245
0.00151107
0.00151709
0.00151812
0.00151858
0.00151499
0.00151185
0.00150618
0.00150125
0.00149128
0.00148663
0.00147408
0.00146795
0.00145163
0.00144823
0.0014241
0.00142298
0.00138488
0.00137718
0.001323
0.00140691
0.000922113
0.00113365
0.00093616
0.000881551
0.000829051
0.000788385
0.000766089
0.000763825
0.000773243
0.000795262
0.000833363
0.000885852
0.000946245
0.00101017
0.00107865
0.00114741
0.00121426
0.00126802
0.00130368
0.00132187
0.00133584
0.00134882
0.00136706
0.00138659
0.00141057
0.00143181
0.00145514
0.00147308
0.00148951
0.00150267
0.00151131
0.00151714
0.00151806
0.00151855
0.00151529
0.00151199
0.00150592
0.0015016
0.00149165
0.00148636
0.00147398
0.00146792
0.00145193
0.00144869
0.0014241
0.0014226
0.00138491
0.00137737
0.00132167
0.00142056
0.000922076
0.00113368
0.000936145
0.000881535
0.000829013
0.000788414
0.00076612
0.000763827
0.000773231
0.000795275
0.000833367
0.000885878
0.000946256
0.00101021
0.00107864
0.00114743
0.00121429
0.00126802
0.00130369
0.00132185
0.00133582
0.00134881
0.00136707
0.00138659
0.00141064
0.00143183
0.00145512
0.00147306
0.0014896
0.00150249
0.00151115
0.00151716
0.00151799
0.00151866
0.00151532
0.00151202
0.0015058
0.00150143
0.00149165
0.0014864
0.00147358
0.00146743
0.00145168
0.00144894
0.00142406
0.00142291
0.00138495
0.00137659
0.00132194
0.00140993
0.000922146
0.00113367
0.00093619
0.000881529
0.000828982
0.000788362
0.000766121
0.000763809
0.000773215
0.000795247
0.000833354
0.000885856
0.000946255
0.00101021
0.00107864
0.00114738
0.00121428
0.00126806
0.00130371
0.00132189
0.00133582
0.00134879
0.00136705
0.00138657
0.00141061
0.00143185
0.00145511
0.00147305
0.00148943
0.00150258
0.00151117
0.00151701
0.00151806
0.00151853
0.00151549
0.00151218
0.00150564
0.00150108
0.00149141
0.00148647
0.00147393
0.00146762
0.00145184
0.00144833
0.00142387
0.00142246
0.00138472
0.00137718
0.00132177
0.00142028
0.000796679
0.00084251
0.00092127
0.00104962
0.00119909
0.00139196
0.00161145
0.0018616
0.00211806
0.00235159
0.00255114
0.00268126
0.00275389
0.00278232
0.00279528
0.00280647
0.0028314
0.00286452
0.0029112
0.00295681
0.00300624
0.0030414
0.00307657
0.00309771
0.0031071
0.00310508
0.00309792
0.00308243
0.0030653
0.00304424
0.00302214
0.00299893
0.00297498
0.00295017
0.00292556
0.00289681
0.00287072
0.00283848
0.00281291
0.00277593
0.00275196
0.00271144
0.00268897
0.00264895
0.0026246
0.0025886
0.00256272
0.00253884
0.00251187
0.00238114
0.000796682
0.000842525
0.000921239
0.00104962
0.00119916
0.00139194
0.00161126
0.00186163
0.00211809
0.00235166
0.00255124
0.00268128
0.00275383
0.00278224
0.00279527
0.00280652
0.00283142
0.00286453
0.00291118
0.00295674
0.00300624
0.00304138
0.0030766
0.00309767
0.00310679
0.00310548
0.00309739
0.00308269
0.00306517
0.00304402
0.00302239
0.00299926
0.00297483
0.00294976
0.00292519
0.00289661
0.00287028
0.00283796
0.00281271
0.00277559
0.00275143
0.00271182
0.00268838
0.00264833
0.00262399
0.00258818
0.00256283
0.00253813
0.00251279
0.00238009
0.000796681
0.000842526
0.000921259
0.00104956
0.00119915
0.001392
0.00161127
0.00186146
0.00211796
0.00235167
0.00255134
0.00268137
0.00275381
0.00278222
0.00279523
0.00280653
0.00283144
0.00286458
0.00291126
0.00295674
0.00300622
0.00304136
0.00307658
0.00309802
0.0031065
0.00310513
0.00309798
0.00308211
0.00306505
0.00304428
0.00302211
0.00299942
0.00297471
0.0029494
0.00292527
0.00289667
0.00287085
0.00283871
0.00281241
0.00277538
0.00275086
0.0027114
0.00268854
0.0026487
0.00262442
0.00258923
0.0025629
0.00253802
0.00251186
0.002381
0.000796684
0.000842521
0.000921262
0.00104955
0.00119908
0.00139212
0.00161143
0.00186149
0.00211791
0.00235152
0.00255131
0.00268146
0.0027539
0.00278221
0.00279518
0.00280649
0.00283145
0.00286455
0.00291127
0.00295679
0.0030062
0.00304136
0.00307654
0.00309787
0.00310718
0.00310473
0.0030978
0.00308258
0.00306521
0.00304423
0.00302178
0.00299939
0.00297524
0.00294991
0.00292491
0.00289624
0.00287
0.00283844
0.00281253
0.00277606
0.00275123
0.0027114
0.00268891
0.00264863
0.00262436
0.00258919
0.00256314
0.00253863
0.00251256
0.0023802
0.000796679
0.000842524
0.000921265
0.0010496
0.00119906
0.00139196
0.00161145
0.00186158
0.00211796
0.00235152
0.00255118
0.00268139
0.00275396
0.00278227
0.00279521
0.00280649
0.00283144
0.00286455
0.00291128
0.00295683
0.00300623
0.00304138
0.00307654
0.00309772
0.00310713
0.00310525
0.0030977
0.0030818
0.00306497
0.00304431
0.00302203
0.00299916
0.0029751
0.00294995
0.00292515
0.00289661
0.00286989
0.00283806
0.00281184
0.00277507
0.00275126
0.00271155
0.00268832
0.00264823
0.00262381
0.00258883
0.00256267
0.00253848
0.00251296
0.00238063
0.00020806
0.000219826
0.000228051
0.000233136
0.000235664
0.000236728
0.000237775
0.000239864
0.000243021
0.000247461
0.000252377
0.000257663
0.000262845
0.000267687
0.00027211
0.000276009
0.000279473
0.000282528
0.000285303
0.000287915
0.0002903
0.000292566
0.000294488
0.000296348
0.000297753
0.000299046
0.000299791
0.000300334
0.000300564
0.00030052
0.000300092
0.000299533
0.000298608
0.000297633
0.000296352
0.000295106
0.000293529
0.000291964
0.000290294
0.000288577
0.000286754
0.000284909
0.00028297
0.000281083
0.000279075
0.000277101
0.000275113
0.000273092
0.000271014
0.00026815
0.00020806
0.000219827
0.000228052
0.000233136
0.000235664
0.000236727
0.000237775
0.000239865
0.000243026
0.000247458
0.000252369
0.000257655
0.000262852
0.000267695
0.000272115
0.000276008
0.000279471
0.000282526
0.000285305
0.000287916
0.000290308
0.000292566
0.000294486
0.000296347
0.00029775
0.000299047
0.000299789
0.000300334
0.000300564
0.000300532
0.000300087
0.000299551
0.000298629
0.000297666
0.000296396
0.000295096
0.000293594
0.00029201
0.000290268
0.00028853
0.000286688
0.000284847
0.000282885
0.000281011
0.000279003
0.000277026
0.000275067
0.000273064
0.000271003
0.000268142
0.00020806
0.000219826
0.000228052
0.000233137
0.000235663
0.000236726
0.000237774
0.000239863
0.000243028
0.000247471
0.000252366
0.000257644
0.000262846
0.000267693
0.00027212
0.000276016
0.000279471
0.000282526
0.000285304
0.000287916
0.000290307
0.000292575
0.000294485
0.000296353
0.000297745
0.000299042
0.000299789
0.000300333
0.000300562
0.000300523
0.000300074
0.00029953
0.000298604
0.000297639
0.000296358
0.000295066
0.000293568
0.00029203
0.000290327
0.000288587
0.000286763
0.000284896
0.000283
0.000281026
0.000279013
0.000277028
0.000275019
0.000272997
0.000270945
0.000268094
0.00020806
0.000219826
0.000228052
0.000233137
0.000235665
0.000236727
0.000237774
0.000239859
0.000243025
0.000247471
0.00025238
0.00025764
0.000262837
0.000267688
0.000272118
0.000276017
0.000279471
0.000282526
0.000285301
0.000287912
0.000290306
0.000292574
0.00029449
0.000296349
0.000297758
0.000299039
0.000299786
0.000300332
0.000300562
0.000300534
0.000300079
0.000299549
0.000298611
0.000297665
0.000296377
0.000295043
0.000293522
0.000291976
0.000290248
0.000288546
0.000286743
0.000284895
0.000282982
0.000281088
0.000279078
0.000277109
0.000275109
0.000273091
0.000271005
0.00026814
0.00020806
0.000219826
0.000228052
0.000233137
0.000235665
0.000236728
0.000237775
0.00023986
0.000243023
0.000247466
0.000252383
0.00025766
0.000262834
0.000267683
0.000272115
0.000276015
0.000279474
0.000282528
0.000285302
0.000287908
0.000290301
0.00029257
0.000294491
0.000296348
0.000297754
0.000299048
0.000299786
0.000300328
0.000300553
0.000300527
0.000300079
0.000299522
0.000298621
0.000297636
0.000296428
0.000295055
0.000293528
0.000292013
0.000290277
0.000288515
0.000286669
0.000284805
0.000282877
0.000280981
0.000278969
0.000276997
0.000275011
0.000272989
0.000270939
0.000268093
)
;

boundaryField
{
    inlet
    {
        type            calculated;
        value           nonuniform List<scalar> 
25
(
0.000603983
0.000603983
0.000603984
0.000603983
0.000603984
0.000629044
0.000629041
0.00062905
0.000629045
0.000629064
0.000998193
0.000998202
0.000998208
0.000998173
0.000998207
0.000795522
0.000795524
0.000795522
0.000795522
0.000795521
0.000221849
0.000221849
0.000221849
0.000221849
0.000221849
)
;
    }
    outlet
    {
        type            calculated;
        value           nonuniform List<scalar> 
25
(
0.00143864
0.00144046
0.00143123
0.00142192
0.00142613
0.00107392
0.00108644
0.00107205
0.00108933
0.00107264
0.00141732
0.00141745
0.00143115
0.00142046
0.00143095
0.00239713
0.00239606
0.00239699
0.00239618
0.00239663
0.000268544
0.000268536
0.000268488
0.000268533
0.000268486
)
;
    }
    side1
    {
        type            cyclicAMI;
        value           nonuniform List<scalar> 
250
(
0.000618389
0.000661901
0.000922129
0.000796679
0.00020806
0.000651459
0.000629456
0.00113366
0.000842517
0.000219827
0.000685198
0.000628026
0.000936181
0.000921268
0.000228052
0.000709881
0.00064916
0.000881551
0.00104961
0.000233138
0.000710443
0.000656715
0.000828992
0.00119908
0.000235665
0.000681757
0.000656185
0.000788349
0.00139196
0.000236729
0.000668455
0.000664857
0.000766126
0.00161145
0.000237777
0.000674104
0.000669042
0.000763825
0.00186159
0.000239864
0.000693642
0.000675634
0.00077322
0.00211801
0.000243024
0.000721969
0.000678989
0.000795236
0.00235155
0.000247466
0.000755533
0.000672575
0.000833351
0.00255116
0.000252383
0.000785942
0.000662477
0.000885864
0.00268132
0.000257665
0.000810451
0.000650071
0.000946264
0.00275392
0.000262842
0.00082208
0.000640801
0.00101021
0.00278229
0.000267688
0.000826154
0.000635358
0.00107865
0.00279525
0.000272115
0.000819672
0.000636164
0.00114739
0.00280647
0.000276015
0.000803738
0.00064175
0.00121427
0.00283142
0.000279476
0.000785257
0.000651522
0.00126805
0.00286453
0.000282531
0.000769798
0.000662886
0.00130371
0.00291124
0.000285306
0.000759044
0.000676058
0.0013219
0.00295682
0.000287914
0.000752512
0.000690154
0.00133583
0.00300623
0.000290304
0.000749755
0.000705162
0.00134879
0.00304139
0.000292571
0.00074897
0.000718844
0.00136706
0.00307656
0.000294492
0.000749426
0.000729597
0.00138657
0.00309771
0.000296351
0.000749813
0.000737791
0.00141061
0.00310711
0.000297757
0.000749742
0.000744418
0.00143186
0.00310516
0.00029905
0.000748468
0.000750723
0.00145512
0.00309781
0.000299792
0.000746033
0.00075686
0.00147306
0.00308212
0.000300334
0.000743172
0.000763143
0.00148953
0.00306513
0.000300562
0.000738686
0.000769176
0.00150256
0.00304428
0.000300527
0.00073516
0.00077545
0.0015112
0.00302208
0.000300088
0.000729978
0.000780555
0.00151718
0.00299904
0.000299531
0.000726107
0.000785256
0.00151819
0.00297504
0.000298617
0.000721188
0.000789089
0.00151848
0.00295006
0.000297637
0.000716969
0.000791835
0.00151542
0.00292535
0.000296393
0.000711712
0.000792543
0.00151217
0.00289671
0.000295084
0.000706822
0.000793986
0.00150583
0.0028703
0.000293531
0.000700646
0.0007916
0.00150124
0.00283827
0.000291991
0.000697236
0.000790901
0.00149126
0.00281237
0.000290288
0.000691712
0.000787249
0.00148641
0.0027755
0.000288549
0.00068667
0.000784919
0.00147385
0.00275161
0.000286714
0.000677477
0.000779593
0.00146756
0.00271149
0.00028486
0.000664342
0.00077542
0.00145179
0.00268864
0.000282926
0.000649647
0.0007645
0.00144843
0.00264859
0.000281035
0.000648955
0.00075882
0.00142401
0.0026242
0.000279025
0.000656497
0.000748087
0.00142251
0.00258871
0.000277052
0.0007518
0.000759097
0.00138481
0.00256269
0.000275064
0.000921298
0.00078017
0.00137712
0.00253866
0.000273043
0.00112515
0.000910345
0.00132183
0.00251242
0.000270979
0.00140565
0.00111762
0.00141352
0.00238089
0.000268124
)
;
    }
    side2
    {
        type            cyclicAMI;
        value           nonuniform List<scalar> 
250
(
0.000618389
0.000661901
0.000922129
0.000796678
0.00020806
0.000651459
0.000629456
0.00113366
0.000842516
0.000219826
0.000685198
0.000628026
0.000936182
0.000921267
0.000228052
0.000709881
0.00064916
0.000881551
0.00104961
0.000233137
0.000710443
0.000656715
0.000828992
0.00119908
0.000235664
0.000681757
0.000656185
0.000788349
0.00139196
0.000236728
0.000668455
0.000664858
0.000766127
0.00161144
0.000237775
0.000674104
0.000669042
0.000763826
0.00186159
0.000239862
0.000693642
0.000675634
0.000773221
0.00211801
0.000243022
0.000721969
0.000678989
0.000795238
0.00235155
0.000247464
0.000755533
0.000672575
0.000833353
0.00255116
0.00025238
0.000785942
0.000662477
0.000885865
0.00268132
0.000257662
0.000810451
0.000650072
0.000946266
0.00275392
0.00026284
0.00082208
0.000640801
0.00101021
0.00278229
0.000267685
0.000826154
0.000635358
0.00107865
0.00279525
0.000272112
0.000819672
0.000636165
0.00114739
0.00280647
0.000276012
0.000803738
0.000641751
0.00121427
0.00283142
0.000279473
0.000785257
0.000651523
0.00126805
0.00286453
0.000282528
0.000769798
0.000662886
0.00130371
0.00291124
0.000285303
0.000759044
0.000676058
0.0013219
0.00295682
0.000287911
0.000752512
0.000690154
0.00133583
0.00300623
0.000290301
0.000749755
0.000705163
0.00134879
0.00304139
0.000292568
0.00074897
0.000718844
0.00136706
0.00307656
0.000294489
0.000749426
0.000729598
0.00138657
0.00309771
0.000296348
0.000749813
0.000737792
0.00141061
0.00310711
0.000297754
0.000749742
0.000744418
0.00143186
0.00310516
0.000299047
0.000748468
0.000750723
0.00145512
0.00309781
0.000299789
0.000746033
0.000756861
0.00147306
0.00308211
0.000300331
0.000743172
0.000763143
0.00148953
0.00306513
0.000300558
0.000738686
0.000769176
0.00150256
0.00304428
0.000300524
0.00073516
0.00077545
0.0015112
0.00302208
0.000300085
0.000729978
0.000780555
0.00151718
0.00299904
0.000299528
0.000726107
0.000785257
0.00151819
0.00297504
0.000298614
0.000721188
0.00078909
0.00151848
0.00295006
0.000297634
0.000716969
0.000791835
0.00151542
0.00292535
0.00029639
0.000711712
0.000792543
0.00151217
0.00289671
0.000295081
0.000706822
0.000793987
0.00150583
0.0028703
0.000293529
0.000700646
0.0007916
0.00150124
0.00283827
0.000291988
0.000697236
0.000790901
0.00149127
0.00281237
0.000290286
0.000691712
0.000787249
0.00148641
0.0027755
0.000288546
0.00068667
0.00078492
0.00147386
0.00275161
0.000286712
0.000677477
0.000779593
0.00146757
0.00271149
0.000284857
0.000664342
0.000775421
0.00145179
0.00268864
0.000282923
0.000649647
0.000764501
0.00144844
0.00264859
0.000281032
0.000648955
0.00075882
0.00142401
0.0026242
0.000279022
0.000656497
0.000748088
0.00142251
0.00258871
0.000277049
0.0007518
0.000759097
0.00138481
0.00256269
0.000275062
0.000921298
0.00078017
0.00137712
0.00253866
0.00027304
0.00112515
0.000910345
0.00132183
0.00251241
0.000270976
0.00140565
0.00111762
0.00141352
0.00238089
0.000268121
)
;
    }
    walls
    {
        type            nutkWallFunction;
        blending        stepwise;
        Cmu             0.09;
        kappa           0.41;
        E               9.8;
        value           nonuniform List<scalar> 
250
(
8.77352e-05
8.77352e-05
8.77352e-05
8.77353e-05
8.77353e-05
8.86984e-05
8.86986e-05
8.86985e-05
8.86985e-05
8.86985e-05
8.9351e-05
8.93511e-05
8.9351e-05
8.93509e-05
8.93509e-05
8.97852e-05
8.97854e-05
8.97856e-05
8.97855e-05
8.97852e-05
8.99815e-05
8.99814e-05
8.99815e-05
8.99821e-05
8.99819e-05
9.01138e-05
9.01134e-05
9.01131e-05
9.01135e-05
9.0114e-05
9.02964e-05
9.02961e-05
9.02956e-05
9.02956e-05
9.02961e-05
9.06653e-05
9.06657e-05
9.06652e-05
9.06643e-05
9.06643e-05
9.11942e-05
9.11952e-05
9.11957e-05
9.11951e-05
9.11945e-05
9.18561e-05
9.18557e-05
9.18582e-05
9.18582e-05
9.18573e-05
9.2589e-05
9.25876e-05
9.25872e-05
9.25898e-05
9.25904e-05
9.33384e-05
9.33368e-05
9.33348e-05
9.33342e-05
9.33378e-05
9.40275e-05
9.40288e-05
9.40275e-05
9.4026e-05
9.40255e-05
9.46599e-05
9.46613e-05
9.46609e-05
9.46599e-05
9.46592e-05
9.52305e-05
9.52317e-05
9.52323e-05
9.52318e-05
9.52312e-05
9.573e-05
9.573e-05
9.57315e-05
9.57315e-05
9.57309e-05
9.61787e-05
9.61785e-05
9.61785e-05
9.61788e-05
9.6179e-05
9.65701e-05
9.65697e-05
9.65698e-05
9.65699e-05
9.65704e-05
9.69335e-05
9.69336e-05
9.69331e-05
9.69328e-05
9.69331e-05
9.72635e-05
9.72637e-05
9.72635e-05
9.72628e-05
9.72624e-05
9.75681e-05
9.75694e-05
9.75693e-05
9.75687e-05
9.75681e-05
9.78353e-05
9.78356e-05
9.7837e-05
9.78367e-05
9.78359e-05
9.80578e-05
9.80576e-05
9.80576e-05
9.80585e-05
9.80584e-05
9.825e-05
9.82499e-05
9.82509e-05
9.82503e-05
9.82502e-05
9.83831e-05
9.83824e-05
9.83818e-05
9.8384e-05
9.83836e-05
9.84808e-05
9.84807e-05
9.84797e-05
9.84792e-05
9.8481e-05
9.8508e-05
9.85076e-05
9.85075e-05
9.85069e-05
9.8507e-05
9.84902e-05
9.849e-05
9.84897e-05
9.84894e-05
9.84888e-05
9.84397e-05
9.84398e-05
9.84395e-05
9.84392e-05
9.84377e-05
9.83369e-05
9.83387e-05
9.83376e-05
9.83392e-05
9.83379e-05
9.81888e-05
9.81879e-05
9.81861e-05
9.81871e-05
9.81869e-05
9.80137e-05
9.80161e-05
9.8013e-05
9.80161e-05
9.8012e-05
9.77921e-05
9.77952e-05
9.77912e-05
9.77927e-05
9.77942e-05
9.75585e-05
9.75633e-05
9.75589e-05
9.7563e-05
9.75588e-05
9.72839e-05
9.72906e-05
9.72842e-05
9.72873e-05
9.72956e-05
9.70117e-05
9.701e-05
9.70051e-05
9.70009e-05
9.70031e-05
9.66918e-05
9.67023e-05
9.66982e-05
9.66905e-05
9.66912e-05
9.63713e-05
9.63787e-05
9.63821e-05
9.6373e-05
9.6379e-05
9.60379e-05
9.60337e-05
9.60434e-05
9.60307e-05
9.60351e-05
9.56948e-05
9.56871e-05
9.56966e-05
9.56902e-05
9.56851e-05
9.5338e-05
9.53271e-05
9.53392e-05
9.53362e-05
9.53242e-05
9.49767e-05
9.49665e-05
9.49745e-05
9.49745e-05
9.49601e-05
9.46009e-05
9.4587e-05
9.46052e-05
9.46027e-05
9.45859e-05
9.42381e-05
9.42263e-05
9.42282e-05
9.42384e-05
9.42214e-05
9.38481e-05
9.38363e-05
9.38381e-05
9.38482e-05
9.38308e-05
9.34865e-05
9.34745e-05
9.34747e-05
9.34875e-05
9.34696e-05
9.30972e-05
9.30896e-05
9.30821e-05
9.30964e-05
9.30807e-05
9.27703e-05
9.27655e-05
9.27551e-05
9.27699e-05
9.27535e-05
9.244e-05
9.24382e-05
9.24291e-05
9.24383e-05
9.2428e-05
9.2576e-05
9.25748e-05
9.25673e-05
9.25743e-05
9.25668e-05
)
;
    }
}


// ************************************************************************* //
