/*--------------------------------*- C++ -*----------------------------------*\
| =========                 |                                                 |
| \\      /  F ield         | OpenFOAM: The Open Source CFD Toolbox           |
|  \\    /   O peration     | Version:  v2006                                 |
|   \\  /    A nd           | Website:  www.openfoam.com                      |
|    \\/     M anipulation  |                                                 |
\*---------------------------------------------------------------------------*/
FoamFile
{
    version     2.0;
    format      ascii;
    class       volScalarField;
    location    "227";
    object      p;
}
// * * * * * * * * * * * * * * * * * * * * * * * * * * * * * * * * * * * * * //

dimensions      [0 2 -2 0 0 0 0];


internalField   nonuniform List<scalar> 
1250
(
-0.161103
-0.16252
-0.165044
-0.167686
-0.172205
-0.173692
-0.171673
-0.167542
-0.163086
-0.159087
-0.154554
-0.149871
-0.145643
-0.142319
-0.139863
-0.138085
-0.136441
-0.134788
-0.132886
-0.130857
-0.128639
-0.126371
-0.124037
-0.121733
-0.119463
-0.117287
-0.115201
-0.113209
-0.111307
-0.109471
-0.107711
-0.106013
-0.104408
-0.102872
-0.101458
-0.100138
-0.0989268
-0.0978739
-0.0968532
-0.0960347
-0.0951546
-0.0946251
-0.0938234
-0.0934096
-0.0925658
-0.0916661
-0.0899137
-0.0864057
-0.0735443
-0.0627499
-0.161103
-0.16252
-0.165044
-0.167686
-0.172205
-0.173692
-0.171673
-0.167542
-0.163086
-0.159087
-0.154554
-0.149871
-0.145643
-0.142319
-0.139863
-0.138085
-0.136441
-0.134788
-0.132886
-0.130857
-0.128639
-0.126371
-0.124037
-0.121733
-0.119463
-0.117287
-0.115201
-0.113209
-0.111307
-0.109471
-0.107712
-0.106014
-0.104409
-0.102872
-0.101459
-0.100139
-0.0989277
-0.0978745
-0.0968538
-0.0960353
-0.0951551
-0.0946254
-0.0938236
-0.0934094
-0.0925674
-0.0916674
-0.0899145
-0.0864077
-0.0735486
-0.0627524
-0.161103
-0.16252
-0.165044
-0.167686
-0.172205
-0.173692
-0.171673
-0.167542
-0.163086
-0.159087
-0.154554
-0.14987
-0.145643
-0.142319
-0.139863
-0.138085
-0.136441
-0.134788
-0.132886
-0.130857
-0.128639
-0.126371
-0.124037
-0.121734
-0.119463
-0.117288
-0.115201
-0.11321
-0.111308
-0.109473
-0.107713
-0.106015
-0.10441
-0.102874
-0.10146
-0.100141
-0.0989288
-0.0978754
-0.0968548
-0.0960362
-0.0951556
-0.0946258
-0.0938243
-0.0934104
-0.092569
-0.0916678
-0.0899129
-0.0864067
-0.073547
-0.062748
-0.161103
-0.16252
-0.165044
-0.167686
-0.172205
-0.173692
-0.171673
-0.167542
-0.163086
-0.159087
-0.154554
-0.14987
-0.145643
-0.142319
-0.139863
-0.138085
-0.136441
-0.134788
-0.132886
-0.130857
-0.128639
-0.126371
-0.124037
-0.121733
-0.119463
-0.117288
-0.115201
-0.113209
-0.111308
-0.109472
-0.107712
-0.106014
-0.104409
-0.102873
-0.101459
-0.10014
-0.0989278
-0.0978745
-0.0968542
-0.0960355
-0.095155
-0.0946253
-0.0938241
-0.0934108
-0.0925671
-0.0916662
-0.0899103
-0.0864028
-0.0735409
-0.0627434
-0.161103
-0.16252
-0.165044
-0.167686
-0.172205
-0.173692
-0.171673
-0.167542
-0.163086
-0.159087
-0.154554
-0.14987
-0.145643
-0.142319
-0.139863
-0.138085
-0.136441
-0.134788
-0.132886
-0.130857
-0.128639
-0.126371
-0.124037
-0.121733
-0.119463
-0.117288
-0.115201
-0.11321
-0.111308
-0.109472
-0.107712
-0.106014
-0.104409
-0.102873
-0.101459
-0.10014
-0.0989278
-0.0978748
-0.0968542
-0.0960355
-0.095155
-0.0946256
-0.0938243
-0.0934112
-0.0925666
-0.0916663
-0.0899126
-0.0864051
-0.0735416
-0.0627445
-0.120379
-0.122603
-0.128937
-0.132184
-0.135656
-0.134837
-0.131001
-0.126156
-0.121895
-0.119126
-0.116936
-0.114928
-0.112957
-0.111037
-0.10908
-0.107168
-0.105005
-0.102738
-0.100208
-0.0977132
-0.0951886
-0.0929138
-0.0907678
-0.0889144
-0.0871706
-0.0856509
-0.0841734
-0.0828429
-0.0815193
-0.080299
-0.0790973
-0.0779857
-0.0769287
-0.0759662
-0.0750855
-0.0743125
-0.0736187
-0.0730538
-0.0725387
-0.0721637
-0.071784
-0.0715836
-0.0712772
-0.0711731
-0.070896
-0.0704286
-0.0695641
-0.0673907
-0.0581608
-0.0499503
-0.120379
-0.122603
-0.128937
-0.132184
-0.135656
-0.134838
-0.131001
-0.126156
-0.121895
-0.119126
-0.116936
-0.114928
-0.112957
-0.111037
-0.10908
-0.107168
-0.105005
-0.102738
-0.100208
-0.0977131
-0.0951885
-0.0929137
-0.0907675
-0.0889139
-0.0871701
-0.0856504
-0.0841728
-0.0828423
-0.0815188
-0.0802986
-0.0790971
-0.0779857
-0.0769288
-0.0759667
-0.0750859
-0.0743132
-0.0736197
-0.0730545
-0.0725394
-0.0721639
-0.0717846
-0.071584
-0.0712781
-0.0711729
-0.0708971
-0.0704317
-0.0695685
-0.0673946
-0.0581636
-0.0499533
-0.120379
-0.122603
-0.128937
-0.132184
-0.135656
-0.134838
-0.131001
-0.126156
-0.121895
-0.119126
-0.116936
-0.114928
-0.112957
-0.111037
-0.10908
-0.107168
-0.105005
-0.102738
-0.100208
-0.0977132
-0.0951886
-0.092914
-0.090768
-0.0889146
-0.0871712
-0.0856518
-0.0841746
-0.0828445
-0.0815212
-0.0803013
-0.0790998
-0.0779884
-0.0769313
-0.0759692
-0.075088
-0.0743149
-0.0736216
-0.0730558
-0.0725412
-0.0721653
-0.0717854
-0.071585
-0.0712803
-0.0711725
-0.0708971
-0.070432
-0.0695649
-0.0673924
-0.0581614
-0.0499472
-0.120379
-0.122603
-0.128937
-0.132184
-0.135656
-0.134837
-0.131001
-0.126156
-0.121895
-0.119126
-0.116936
-0.114928
-0.112957
-0.111037
-0.10908
-0.107168
-0.105005
-0.102738
-0.100208
-0.0977131
-0.0951885
-0.0929138
-0.0907679
-0.0889144
-0.0871708
-0.0856514
-0.084174
-0.0828438
-0.0815206
-0.0803005
-0.0790991
-0.0779876
-0.0769305
-0.0759686
-0.0750876
-0.0743142
-0.0736209
-0.0730554
-0.0725408
-0.0721653
-0.0717846
-0.0715848
-0.0712798
-0.0711734
-0.0708951
-0.0704284
-0.0695631
-0.0673904
-0.0581629
-0.0499504
-0.120379
-0.122603
-0.128937
-0.132184
-0.135656
-0.134837
-0.131001
-0.126156
-0.121895
-0.119126
-0.116936
-0.114928
-0.112957
-0.111037
-0.10908
-0.107168
-0.105005
-0.102738
-0.100208
-0.0977132
-0.0951885
-0.0929139
-0.0907681
-0.0889149
-0.0871714
-0.0856522
-0.084175
-0.0828451
-0.0815221
-0.0803023
-0.079101
-0.0779897
-0.0769327
-0.0759705
-0.0750897
-0.0743163
-0.0736224
-0.0730572
-0.0725421
-0.072167
-0.0717859
-0.0715861
-0.0712802
-0.0711759
-0.0708964
-0.070429
-0.069564
-0.0673918
-0.0581655
-0.0499534
-0.0419037
-0.0407083
-0.0390638
-0.0439496
-0.0515137
-0.0562776
-0.0567091
-0.0539902
-0.0503633
-0.0469109
-0.0432654
-0.0398546
-0.036379
-0.0329217
-0.0296997
-0.0271308
-0.0251127
-0.0238353
-0.0229415
-0.0224891
-0.0220896
-0.0218551
-0.0214996
-0.0212122
-0.0208024
-0.0205032
-0.0201645
-0.0199978
-0.0198546
-0.0198998
-0.0199867
-0.0202298
-0.0205072
-0.020894
-0.0213058
-0.0217846
-0.0222978
-0.0228339
-0.0234313
-0.0240075
-0.0246949
-0.0252795
-0.0260802
-0.0266295
-0.0275429
-0.0279258
-0.0287297
-0.0285775
-0.02543
-0.0253309
-0.0419036
-0.0407078
-0.0390648
-0.0439499
-0.0515103
-0.0562776
-0.0567097
-0.0539902
-0.0503626
-0.046912
-0.0432662
-0.0398536
-0.0363785
-0.0329214
-0.0296995
-0.0271308
-0.0251129
-0.0238352
-0.0229412
-0.0224888
-0.0220892
-0.021855
-0.0214994
-0.0212119
-0.020802
-0.0205029
-0.0201639
-0.0199979
-0.0198546
-0.0199004
-0.0199875
-0.0202309
-0.0205086
-0.0208958
-0.0213076
-0.021786
-0.0222995
-0.0228352
-0.0234333
-0.0240085
-0.0246963
-0.0252807
-0.0260801
-0.0266313
-0.0275474
-0.0279279
-0.0287298
-0.0285787
-0.0254342
-0.0253354
-0.0419036
-0.0407076
-0.0390644
-0.0439512
-0.0515094
-0.0562756
-0.0567097
-0.0539906
-0.0503628
-0.0469126
-0.0432651
-0.0398532
-0.036379
-0.0329214
-0.0296992
-0.0271304
-0.0251129
-0.0238355
-0.0229414
-0.0224889
-0.0220891
-0.0218551
-0.0214998
-0.0212125
-0.0208028
-0.0205043
-0.0201654
-0.0199994
-0.0198562
-0.0199022
-0.0199896
-0.0202328
-0.0205105
-0.0208976
-0.0213096
-0.0217869
-0.0223007
-0.0228354
-0.0234341
-0.0240094
-0.0246963
-0.0252826
-0.0260805
-0.0266305
-0.0275483
-0.0279291
-0.0287296
-0.0285771
-0.0254298
-0.0253295
-0.0419035
-0.0407077
-0.0390637
-0.0439516
-0.0515116
-0.0562742
-0.056709
-0.0539906
-0.0503636
-0.046912
-0.0432637
-0.0398538
-0.0363795
-0.0329217
-0.0296992
-0.0271303
-0.0251126
-0.0238355
-0.0229414
-0.022489
-0.0220891
-0.0218548
-0.0214996
-0.0212122
-0.0208023
-0.0205035
-0.0201648
-0.0199986
-0.0198553
-0.0199008
-0.0199882
-0.0202312
-0.0205089
-0.020896
-0.0213085
-0.0217861
-0.0222997
-0.0228346
-0.0234327
-0.024009
-0.024695
-0.0252816
-0.0260806
-0.0266296
-0.0275474
-0.0279289
-0.028731
-0.028579
-0.0254283
-0.0253307
-0.0419035
-0.040708
-0.039063
-0.0439508
-0.051514
-0.0562752
-0.0567084
-0.0539903
-0.0503638
-0.0469109
-0.0432637
-0.0398546
-0.0363794
-0.0329218
-0.0296994
-0.0271303
-0.0251124
-0.0238353
-0.0229414
-0.0224891
-0.0220894
-0.0218549
-0.0214997
-0.0212127
-0.0208031
-0.0205046
-0.020166
-0.0200002
-0.0198573
-0.019903
-0.0199905
-0.0202339
-0.0205118
-0.0208985
-0.021311
-0.0217888
-0.0223024
-0.0228371
-0.0234346
-0.0240108
-0.0246971
-0.0252825
-0.0260824
-0.0266315
-0.0275477
-0.0279317
-0.0287331
-0.0285798
-0.0254298
-0.0253304
0.0716303
0.0431984
0.0445127
0.0495758
0.0561193
0.0620615
0.0678793
0.0734149
0.0785585
0.081823
0.0831394
0.0827997
0.0803236
0.0768165
0.0731341
0.0696819
0.0668608
0.0645799
0.0628932
0.0614599
0.0602459
0.0589204
0.0575356
0.0558912
0.0541222
0.0521556
0.050126
0.0480291
0.0459323
0.0438635
0.0418119
0.0398308
0.0378597
0.0359627
0.0340698
0.0322296
0.0304049
0.028597
0.0268257
0.0250411
0.023302
0.021552
0.0198068
0.0180985
0.016293
0.0146404
0.012723
0.0104767
0.0076979
0.00154948
0.0716305
0.0431989
0.0445123
0.049575
0.0561199
0.062063
0.0678798
0.0734134
0.0785592
0.0818237
0.0831357
0.0828015
0.0803256
0.0768168
0.0731334
0.0696816
0.0668612
0.0645812
0.0628941
0.0614602
0.060246
0.0589202
0.0575359
0.0558921
0.0541233
0.0521565
0.0501266
0.0480289
0.0459325
0.0438635
0.0418126
0.0398315
0.0378605
0.035963
0.0340699
0.0322291
0.0304043
0.0285963
0.0268254
0.0250411
0.0233019
0.0215529
0.0198063
0.0180988
0.016293
0.0146406
0.012723
0.0104763
0.00769516
0.00154549
0.0716307
0.0431992
0.0445127
0.0495748
0.0561186
0.0620634
0.0678819
0.0734133
0.0785588
0.0818195
0.0831337
0.0828044
0.0803267
0.0768177
0.0731336
0.0696807
0.0668608
0.0645809
0.062895
0.0614604
0.0602462
0.0589199
0.0575349
0.0558917
0.0541232
0.0521563
0.0501266
0.0480283
0.045931
0.0438622
0.0418105
0.0398304
0.0378592
0.0359622
0.0340689
0.0322282
0.0304032
0.0285947
0.0268241
0.0250398
0.0233008
0.0215519
0.0198059
0.0180967
0.0162927
0.0146394
0.012723
0.010475
0.00769743
0.00154939
0.0716307
0.0431994
0.0445133
0.0495759
0.0561172
0.0620617
0.0678827
0.073415
0.0785583
0.081816
0.0831365
0.0828044
0.0803259
0.0768179
0.0731345
0.0696808
0.06686
0.0645804
0.0628946
0.0614613
0.0602464
0.0589207
0.0575347
0.055891
0.0541233
0.0521565
0.0501272
0.0480296
0.0459322
0.0438631
0.0418115
0.0398309
0.0378604
0.0359633
0.0340707
0.0322295
0.0304047
0.0285957
0.0268242
0.0250402
0.0233004
0.0215523
0.0198062
0.0180975
0.0162916
0.0146414
0.0127243
0.0104735
0.00769617
0.0015472
0.0716305
0.0431993
0.0445135
0.0495767
0.0561182
0.0620606
0.067881
0.0734159
0.0785581
0.0818182
0.0831404
0.0828016
0.080324
0.0768173
0.0731348
0.0696816
0.0668601
0.0645796
0.0628938
0.0614607
0.0602468
0.0589208
0.0575355
0.0558905
0.0541221
0.0521557
0.0501259
0.0480286
0.0459311
0.0438617
0.0418095
0.0398284
0.0378573
0.0359604
0.0340677
0.0322275
0.0304024
0.0285945
0.0268226
0.0250385
0.0232986
0.0215497
0.0198041
0.0180958
0.0162894
0.014637
0.0127208
0.0104737
0.00769612
0.00154643
0.264158
0.28063
0.275579
0.272051
0.268544
0.261895
0.252171
0.240174
0.227961
0.217656
0.209232
0.201565
0.195944
0.191115
0.186669
0.182289
0.177829
0.173123
0.168236
0.163201
0.15816
0.153201
0.148394
0.143787
0.139351
0.135118
0.131001
0.12704
0.12314
0.11935
0.115593
0.111926
0.108287
0.104741
0.101222
0.0978115
0.0944203
0.0911619
0.087897
0.0847895
0.0816522
0.0786611
0.0756653
0.0727077
0.0698498
0.0666022
0.0633679
0.0582578
0.0509543
0.0402274
0.264158
0.280631
0.27558
0.272052
0.268542
0.261894
0.252173
0.240177
0.22796
0.217655
0.209234
0.201564
0.195944
0.191116
0.186669
0.182289
0.177828
0.173123
0.168236
0.163202
0.15816
0.153202
0.148395
0.143787
0.139352
0.135119
0.131002
0.127042
0.123141
0.119351
0.115593
0.111926
0.108287
0.104741
0.101223
0.0978119
0.0944204
0.0911617
0.0878964
0.0847891
0.081652
0.0786611
0.0756657
0.0727081
0.0698496
0.0666029
0.0633687
0.0582568
0.0509523
0.0402244
0.264158
0.280631
0.27558
0.272053
0.268542
0.261892
0.252172
0.240179
0.227962
0.217658
0.209232
0.201562
0.195944
0.191116
0.18667
0.182289
0.177828
0.173123
0.168236
0.163202
0.158161
0.153202
0.148395
0.143786
0.13935
0.135118
0.131002
0.127041
0.12314
0.11935
0.115592
0.111925
0.108286
0.10474
0.101222
0.0978116
0.0944202
0.0911616
0.0878962
0.0847886
0.0816518
0.0786605
0.0756655
0.0727081
0.0698494
0.0666019
0.063368
0.0582569
0.0509529
0.0402274
0.264159
0.280631
0.275579
0.272053
0.268544
0.261891
0.25217
0.240178
0.227964
0.21766
0.209229
0.201562
0.195945
0.191116
0.186671
0.18229
0.177828
0.173123
0.168235
0.163202
0.158161
0.153202
0.148395
0.143787
0.13935
0.135118
0.131002
0.127042
0.123141
0.119351
0.115593
0.111926
0.108287
0.104741
0.101223
0.0978125
0.0944215
0.091163
0.0878976
0.0847897
0.0816527
0.0786616
0.0756658
0.0727088
0.06985
0.0666019
0.0633689
0.0582587
0.0509518
0.040225
0.264159
0.280631
0.275579
0.272052
0.268545
0.261893
0.252169
0.240175
0.227964
0.217659
0.209229
0.201564
0.195945
0.191116
0.18667
0.18229
0.177829
0.173123
0.168235
0.163201
0.158161
0.153202
0.148395
0.143787
0.13935
0.135117
0.131
0.127041
0.123139
0.11935
0.115592
0.111925
0.108285
0.104739
0.10122
0.0978096
0.0944186
0.0911603
0.0878954
0.0847876
0.0816503
0.0786594
0.0756634
0.0727065
0.0698473
0.0665993
0.0633651
0.0582557
0.0509508
0.0402246
)
;

boundaryField
{
    inlet
    {
        type            zeroGradient;
    }
    outlet
    {
        type            fixedValue;
        value           uniform 0;
    }
    side1
    {
        type            cyclicAMI;
        value           nonuniform List<scalar> 
250
(
-0.161103
-0.120379
-0.0419036
0.0716303
0.264158
-0.16252
-0.122603
-0.0407082
0.0431988
0.28063
-0.165044
-0.128937
-0.0390635
0.044513
0.275579
-0.167686
-0.132184
-0.0439502
0.0495761
0.272052
-0.172205
-0.135656
-0.0515139
0.0561187
0.268544
-0.173692
-0.134837
-0.0562764
0.0620609
0.261894
-0.171673
-0.131001
-0.0567088
0.0678801
0.25217
-0.167542
-0.126156
-0.0539903
0.0734153
0.240174
-0.163086
-0.121895
-0.0503636
0.0785582
0.227962
-0.159087
-0.119126
-0.0469109
0.0818205
0.217657
-0.154554
-0.116936
-0.0432646
0.0831398
0.209231
-0.149871
-0.114928
-0.0398546
0.0828005
0.201565
-0.145643
-0.112957
-0.0363792
0.0803237
0.195944
-0.142319
-0.111037
-0.0329218
0.0768168
0.191115
-0.139863
-0.10908
-0.0296996
0.0731344
0.186669
-0.138085
-0.107168
-0.0271306
0.0696817
0.182289
-0.136441
-0.105005
-0.0251126
0.0668604
0.177829
-0.134788
-0.102738
-0.0238354
0.0645797
0.173123
-0.132886
-0.100208
-0.0229415
0.0628934
0.168235
-0.130857
-0.0977132
-0.0224892
0.0614602
0.163201
-0.128639
-0.0951886
-0.0220895
0.0602463
0.15816
-0.126371
-0.0929138
-0.0218551
0.0589205
0.153201
-0.124037
-0.090768
-0.0214997
0.0575355
0.148395
-0.121733
-0.0889146
-0.0212125
0.0558908
0.143787
-0.119463
-0.087171
-0.0208028
0.0541221
0.139351
-0.117287
-0.0856516
-0.0205039
0.0521556
0.135117
-0.115201
-0.0841742
-0.0201653
0.0501258
0.131001
-0.113209
-0.082844
-0.019999
0.0480288
0.12704
-0.111307
-0.0815207
-0.019856
0.0459317
0.123139
-0.109471
-0.0803006
-0.0199014
0.0438625
0.11935
-0.107712
-0.0790991
-0.0199887
0.0418106
0.115592
-0.106014
-0.0779877
-0.0202319
0.0398296
0.111925
-0.104408
-0.0769307
-0.0205095
0.0378585
0.108286
-0.102872
-0.0759684
-0.0208963
0.0359615
0.10474
-0.101459
-0.0750876
-0.0213084
0.0340687
0.101221
-0.100139
-0.0743144
-0.0217867
0.0322285
0.0978105
-0.0989273
-0.0736206
-0.0223001
0.0304036
0.0944194
-0.0978743
-0.0730555
-0.0228355
0.0285957
0.091161
-0.0968537
-0.0725404
-0.023433
0.0268241
0.0878961
-0.0960351
-0.0721654
-0.0240092
0.0250398
0.0847885
-0.0951548
-0.0717849
-0.024696
0.0233002
0.0816512
-0.0946254
-0.0715848
-0.025281
0.0215508
0.0786602
-0.0938239
-0.0712787
-0.0260813
0.0198055
0.0756643
-0.0934104
-0.0711745
-0.0266305
0.0180971
0.072707
-0.0925662
-0.0708962
-0.0275453
0.0162911
0.0698485
-0.0916662
-0.0704288
-0.0279288
0.0146386
0.0666007
-0.0899132
-0.069564
-0.0287315
0.0127219
0.0633664
-0.0864054
-0.0673912
-0.0285787
0.0104752
0.0582567
-0.073543
-0.0581632
-0.0254299
0.00769698
0.0509525
-0.0627472
-0.0499519
-0.0253306
0.00154793
0.040226
)
;
    }
    side2
    {
        type            cyclicAMI;
        value           nonuniform List<scalar> 
250
(
-0.161103
-0.120379
-0.0419035
0.0716306
0.264158
-0.16252
-0.122603
-0.0407081
0.0431991
0.28063
-0.165044
-0.128937
-0.0390634
0.0445134
0.275579
-0.167686
-0.132184
-0.0439501
0.0495765
0.272052
-0.172205
-0.135655
-0.0515137
0.056119
0.268544
-0.173692
-0.134837
-0.0562763
0.0620613
0.261894
-0.171673
-0.131001
-0.0567086
0.0678804
0.25217
-0.167542
-0.126156
-0.0539902
0.0734156
0.240175
-0.163086
-0.121895
-0.0503635
0.0785584
0.227962
-0.159087
-0.119126
-0.0469108
0.0818208
0.217657
-0.154554
-0.116936
-0.0432644
0.08314
0.209231
-0.149871
-0.114928
-0.0398545
0.0828008
0.201565
-0.145643
-0.112957
-0.0363791
0.0803239
0.195944
-0.142319
-0.111037
-0.0329217
0.076817
0.191115
-0.139863
-0.10908
-0.0296995
0.0731346
0.18667
-0.138085
-0.107168
-0.0271305
0.0696819
0.18229
-0.136441
-0.105005
-0.0251125
0.0668606
0.177829
-0.134788
-0.102738
-0.0238353
0.0645799
0.173123
-0.132886
-0.100208
-0.0229414
0.0628936
0.168236
-0.130857
-0.0977132
-0.0224891
0.0614604
0.163201
-0.128639
-0.0951885
-0.0220894
0.0602464
0.15816
-0.126371
-0.0929138
-0.021855
0.0589207
0.153201
-0.124037
-0.0907679
-0.0214996
0.0575356
0.148395
-0.121733
-0.0889146
-0.0212124
0.055891
0.143787
-0.119463
-0.087171
-0.0208027
0.0541223
0.139351
-0.117287
-0.0856515
-0.0205038
0.0521557
0.135117
-0.115201
-0.0841742
-0.0201652
0.050126
0.131001
-0.113209
-0.0828439
-0.019999
0.048029
0.12704
-0.111307
-0.0815207
-0.0198559
0.0459318
0.12314
-0.109471
-0.0803006
-0.0199014
0.0438626
0.11935
-0.107712
-0.0790991
-0.0199886
0.0418107
0.115592
-0.106014
-0.0779877
-0.0202318
0.0398297
0.111925
-0.104408
-0.0769307
-0.0205094
0.0378586
0.108286
-0.102872
-0.0759683
-0.0208962
0.0359616
0.10474
-0.101459
-0.0750875
-0.0213084
0.0340688
0.101221
-0.100139
-0.0743144
-0.0217866
0.0322286
0.0978106
-0.0989273
-0.0736205
-0.0223
0.0304037
0.0944195
-0.0978743
-0.0730555
-0.0228355
0.0285958
0.0911611
-0.0968537
-0.0725404
-0.0234329
0.0268242
0.0878962
-0.0960351
-0.0721653
-0.0240092
0.0250399
0.0847886
-0.0951548
-0.0717849
-0.024696
0.0233003
0.0816512
-0.0946254
-0.0715848
-0.025281
0.0215509
0.0786602
-0.0938239
-0.0712787
-0.0260813
0.0198056
0.0756643
-0.0934104
-0.0711745
-0.0266304
0.0180972
0.0727071
-0.0925662
-0.0708962
-0.0275453
0.0162912
0.0698486
-0.0916662
-0.0704288
-0.0279287
0.0146387
0.0666008
-0.0899132
-0.069564
-0.0287314
0.012722
0.0633665
-0.0864054
-0.0673912
-0.0285787
0.0104753
0.0582568
-0.073543
-0.0581631
-0.0254299
0.00769706
0.0509526
-0.0627472
-0.0499519
-0.0253306
0.001548
0.040226
)
;
    }
    walls
    {
        type            zeroGradient;
    }
}


// ************************************************************************* //
