/*--------------------------------*- C++ -*----------------------------------*\
| =========                 |                                                 |
| \\      /  F ield         | OpenFOAM: The Open Source CFD Toolbox           |
|  \\    /   O peration     | Version:  v2006                                 |
|   \\  /    A nd           | Website:  www.openfoam.com                      |
|    \\/     M anipulation  |                                                 |
\*---------------------------------------------------------------------------*/
FoamFile
{
    version     2.0;
    format      ascii;
    class       volVectorField;
    location    "227";
    object      U;
}
// * * * * * * * * * * * * * * * * * * * * * * * * * * * * * * * * * * * * * //

dimensions      [0 1 -1 0 0 0 0];


internalField   nonuniform List<vector> 
1250
(
(0.999789 0.102538 0.0788414)
(1.0016 0.100103 0.0772534)
(1.00405 0.0944353 0.0777399)
(1.00678 0.0907025 0.0757571)
(1.0115 0.0899239 0.072069)
(1.01289 0.0932046 0.0666807)
(1.01102 0.0995275 0.0622805)
(1.00671 0.105587 0.0616898)
(1.00243 0.108652 0.0648756)
(0.998168 0.107405 0.0699399)
(0.993947 0.102053 0.0741524)
(0.989034 0.0950273 0.0756919)
(0.985352 0.0888188 0.074537)
(0.981847 0.0848648 0.0716226)
(0.980093 0.0835489 0.0680821)
(0.978089 0.0843692 0.0648069)
(0.977172 0.0865627 0.0624687)
(0.975181 0.0891691 0.0613011)
(0.973963 0.0915526 0.0613189)
(0.971483 0.0931492 0.0621145)
(0.96992 0.0938958 0.0633186)
(0.967135 0.0937262 0.0644039)
(0.965464 0.0929956 0.0651908)
(0.962611 0.091814 0.0654482)
(0.961 0.0905866 0.0653194)
(0.958222 0.0893037 0.0647911)
(0.956778 0.0882405 0.064118)
(0.954141 0.087209 0.0633039)
(0.952793 0.0863933 0.0625256)
(0.9503 0.0855429 0.0617508)
(0.948956 0.0847954 0.0610392)
(0.946611 0.083991 0.0603564)
(0.945323 0.0832117 0.0597293)
(0.943222 0.0823859 0.0590923)
(0.942085 0.0815776 0.0585205)
(0.940379 0.0807397 0.05791)
(0.939427 0.0799434 0.057355)
(0.938268 0.0791391 0.0568056)
(0.937482 0.0783664 0.056217)
(0.936902 0.0775917 0.0557396)
(0.936163 0.0768631 0.0551169)
(0.936055 0.0761689 0.0547273)
(0.935433 0.0755014 0.0541762)
(0.935471 0.0748972 0.0538304)
(0.934972 0.0740613 0.0531792)
(0.934506 0.0733425 0.0529536)
(0.933477 0.0717221 0.0517621)
(0.927801 0.0714477 0.0519253)
(0.920903 0.0635844 0.0520322)
(0.84115 0.0561279 0.0504782)
(0.999789 0.121882 0.0432966)
(1.0016 0.119077 0.0425388)
(1.00405 0.113836 0.044753)
(1.00678 0.109673 0.0440205)
(1.0115 0.107793 0.0407537)
(1.01289 0.109248 0.0346152)
(1.01102 0.113902 0.0284764)
(1.00671 0.119482 0.0260424)
(1.00243 0.123382 0.028125)
(0.998168 0.123761 0.033327)
(0.993947 0.119973 0.0389869)
(0.989034 0.113766 0.0426225)
(0.985352 0.107505 0.0434423)
(0.981847 0.102844 0.0418925)
(0.980093 0.100498 0.0389321)
(0.978089 0.100267 0.0355638)
(0.977172 0.10163 0.0326618)
(0.975181 0.103748 0.0307461)
(0.973963 0.10602 0.0300265)
(0.971483 0.107784 0.0302897)
(0.96992 0.108867 0.031204)
(0.967135 0.109041 0.0322887)
(0.965464 0.108589 0.0332623)
(0.962612 0.107545 0.033871)
(0.961002 0.106337 0.0341263)
(0.958225 0.104954 0.0340185)
(0.956783 0.103735 0.0337046)
(0.954147 0.102503 0.0332468)
(0.952801 0.101486 0.032756)
(0.95031 0.100438 0.0322787)
(0.948968 0.0995075 0.0318295)
(0.946624 0.0985317 0.0314269)
(0.945337 0.0975973 0.0310689)
(0.943236 0.0966149 0.0307182)
(0.9421 0.0956713 0.0304241)
(0.940394 0.094685 0.0301029)
(0.939442 0.0937574 0.0298247)
(0.938282 0.0928221 0.0295495)
(0.937494 0.0919031 0.0292319)
(0.936915 0.0910233 0.0290159)
(0.936176 0.090136 0.028655)
(0.936066 0.0893504 0.0285049)
(0.935444 0.0885517 0.0281828)
(0.935486 0.0878664 0.0280453)
(0.93498 0.0868687 0.0276566)
(0.934507 0.0861233 0.0276348)
(0.933472 0.0842246 0.0269782)
(0.927799 0.0840229 0.0272178)
(0.920901 0.076582 0.0297552)
(0.841149 0.069 0.030616)
(0.999789 0.129296 0.0035139)
(1.0016 0.126394 0.00366008)
(1.00405 0.122094 0.00738544)
(1.00678 0.117909 0.00797484)
(1.0115 0.115111 0.00544933)
(1.01289 0.114598 -0.000838322)
(1.01102 0.117127 -0.0081151)
(1.00671 0.121682 -0.0121543)
(1.00243 0.126034 -0.0113785)
(0.998168 0.128002 -0.00654844)
(0.993947 0.126149 4.97391e-06)
(0.989034 0.121369 0.0053807)
(0.985352 0.115667 0.00809547)
(0.981847 0.110756 0.00806151)
(0.980093 0.10761 0.00597096)
(0.978089 0.106349 0.00283921)
(0.977172 0.106749 -0.000342193)
(0.975181 0.108171 -0.00281868)
(0.973963 0.11011 -0.00420526)
(0.971483 0.111869 -0.00449998)
(0.96992 0.113181 -0.00396488)
(0.967135 0.113682 -0.00298673)
(0.965465 0.113554 -0.00192098)
(0.962612 0.112749 -0.00101908)
(0.961003 0.11168 -0.000402794)
(0.958226 0.110332 -7.70015e-05)
(0.956785 0.109077 1.75332e-06)
(0.954148 0.107765 -5.19117e-05)
(0.952803 0.106648 -0.000203828)
(0.950312 0.105505 -0.000333039)
(0.94897 0.104483 -0.000472125)
(0.946626 0.103431 -0.000553201)
(0.94534 0.102432 -0.000604419)
(0.943239 0.101389 -0.000634538)
(0.942103 0.100401 -0.000621884)
(0.940396 0.0993637 -0.000624674)
(0.939444 0.0983933 -0.000601583)
(0.938284 0.0974187 -0.000574476)
(0.937496 0.0964457 -0.000593936)
(0.936917 0.0955425 -0.00052667)
(0.936178 0.0945854 -0.000594777)
(0.936068 0.093789 -0.000503744)
(0.935443 0.0929281 -0.000558556)
(0.935487 0.092242 -0.0004661)
(0.934982 0.0911745 -0.000553045)
(0.934505 0.0904516 -0.000324667)
(0.933469 0.0884349 -0.000330719)
(0.927793 0.0883268 -3.30668e-05)
(0.920894 0.082043 0.0046823)
(0.841121 0.0750941 0.00783775)
(0.999789 0.124054 -0.0366128)
(1.0016 0.121339 -0.035577)
(1.00405 0.1184 -0.0307051)
(1.00678 0.114602 -0.0288513)
(1.0115 0.111161 -0.0303886)
(1.01289 0.10873 -0.03621)
(1.01102 0.108886 -0.043912)
(1.00671 0.11197 -0.0491613)
(1.00243 0.116349 -0.0497682)
(0.998168 0.119714 -0.0457828)
(0.993947 0.119976 -0.0389774)
(0.989034 0.117092 -0.032388)
(0.985352 0.112508 -0.0280439)
(0.981847 0.107826 -0.0265584)
(0.980093 0.104188 -0.0275747)
(0.978089 0.102021 -0.0301633)
(0.977172 0.101419 -0.0333127)
(0.975181 0.102006 -0.0361075)
(0.973963 0.103421 -0.0380254)
(0.971483 0.105003 -0.0388493)
(0.96992 0.106416 -0.0387458)
(0.967135 0.107195 -0.0379702)
(0.965465 0.107402 -0.0369167)
(0.962612 0.106916 -0.0358101)
(0.961003 0.10609 -0.0348936)
(0.958226 0.104908 -0.0341666)
(0.956784 0.103739 -0.0337032)
(0.954148 0.102474 -0.033348)
(0.952802 0.101365 -0.0331466)
(0.95031 0.100238 -0.0329155)
(0.948968 0.0992226 -0.0327307)
(0.946624 0.098197 -0.0324827)
(0.945337 0.0972321 -0.0322219)
(0.943236 0.0962307 -0.0319288)
(0.9421 0.0952936 -0.0316097)
(0.940393 0.0943077 -0.0312934)
(0.939441 0.0933909 -0.0309723)
(0.938281 0.0924733 -0.0306442)
(0.937493 0.0915416 -0.0303643)
(0.936914 0.0907037 -0.0300187)
(0.936175 0.0897707 -0.0297896)
(0.936066 0.0890459 -0.029462)
(0.935441 0.0882058 -0.0292487)
(0.935481 0.0875854 -0.0289424)
(0.934978 0.0865443 -0.0286972)
(0.934501 0.0859234 -0.0282677)
(0.933465 0.084007 -0.0276116)
(0.927792 0.0839931 -0.027292)
(0.920891 0.0794897 -0.0208606)
(0.841113 0.0738672 -0.0157187)
(0.999789 0.106668 -0.0731557)
(1.0016 0.104406 -0.0713314)
(1.00405 0.103117 -0.0657901)
(1.00678 0.100078 -0.0628531)
(1.0115 0.0963295 -0.063252)
(1.01289 0.092219 -0.0680375)
(1.01102 0.0899878 -0.0754105)
(1.00671 0.0912985 -0.0813559)
(1.00243 0.0952755 -0.0832864)
(0.998168 0.0997067 -0.0805354)
(0.993947 0.102059 -0.0741441)
(0.989034 0.101352 -0.0669864)
(0.985352 0.0983354 -0.0614384)
(0.981847 0.0943417 -0.0585787)
(0.980092 0.0905678 -0.0584211)
(0.978089 0.0877066 -0.0602133)
(0.977172 0.0861608 -0.0630222)
(0.975181 0.0858557 -0.0658619)
(0.973963 0.086609 -0.0681233)
(0.971483 0.087859 -0.0693957)
(0.96992 0.0892349 -0.0697338)
(0.967135 0.0902148 -0.0692367)
(0.965464 0.0907374 -0.0682984)
(0.962612 0.090617 -0.0670949)
(0.961001 0.0901146 -0.0659677)
(0.958224 0.0892157 -0.0649102)
(0.956781 0.0882471 -0.0641073)
(0.954144 0.0871539 -0.0633774)
(0.952797 0.0861618 -0.062842)
(0.950305 0.0851618 -0.0622727)
(0.948962 0.0842545 -0.0617821)
(0.946616 0.0833562 -0.0612285)
(0.945329 0.0825198 -0.0606815)
(0.943227 0.0816589 -0.0600936)
(0.94209 0.080866 -0.0595004)
(0.940384 0.080027 -0.0588943)
(0.939432 0.0792529 -0.0583076)
(0.938272 0.078482 -0.0577109)
(0.937486 0.0776829 -0.0571597)
(0.936906 0.0769909 -0.0565696)
(0.936167 0.0761746 -0.0560666)
(0.936059 0.0755908 -0.0555339)
(0.935435 0.0748514 -0.0550671)
(0.935472 0.0743475 -0.0545876)
(0.934971 0.073448 -0.0540253)
(0.9345 0.0729944 -0.0534385)
(0.933469 0.0713843 -0.0522175)
(0.927796 0.0714655 -0.0518982)
(0.920891 0.0691662 -0.0443829)
(0.841128 0.065404 -0.0377649)
(0.998979 0.251458 0.177505)
(1.00332 0.255858 0.176958)
(1.00828 0.266398 0.170893)
(1.01143 0.27506 0.174718)
(1.01461 0.276062 0.18522)
(1.01367 0.267228 0.198872)
(1.01005 0.251366 0.207716)
(1.00526 0.236318 0.20698)
(1.00133 0.227471 0.198406)
(0.998547 0.226214 0.185877)
(0.996668 0.231511 0.173583)
(0.994423 0.239924 0.165566)
(0.992702 0.248289 0.163151)
(0.990308 0.254601 0.165536)
(0.988596 0.257818 0.170925)
(0.986036 0.257737 0.177077)
(0.984231 0.255024 0.182201)
(0.981264 0.250663 0.185159)
(0.979312 0.245854 0.185785)
(0.976162 0.241361 0.184401)
(0.974499 0.237736 0.181819)
(0.97165 0.234953 0.178646)
(0.970628 0.232952 0.175593)
(0.968235 0.231324 0.172839)
(0.967788 0.22991 0.170651)
(0.965681 0.228385 0.168811)
(0.965602 0.226723 0.167374)
(0.963587 0.224762 0.165992)
(0.963719 0.222633 0.164727)
(0.96174 0.220228 0.163293)
(0.961997 0.217777 0.161825)
(0.960122 0.215167 0.160152)
(0.960515 0.212642 0.158442)
(0.958842 0.210057 0.156614)
(0.959427 0.207649 0.154779)
(0.958043 0.205239 0.152977)
(0.95888 0.203006 0.151138)
(0.957851 0.200857 0.149512)
(0.958841 0.198758 0.147722)
(0.958208 0.196882 0.146321)
(0.959283 0.194787 0.144588)
(0.958969 0.193197 0.143421)
(0.960056 0.191105 0.141693)
(0.959833 0.189664 0.140714)
(0.960764 0.18743 0.139111)
(0.959982 0.185837 0.138588)
(0.960044 0.181965 0.136987)
(0.954149 0.179773 0.137072)
(0.950412 0.166211 0.139023)
(0.883676 0.145676 0.139047)
(0.998979 0.294003 0.0911122)
(1.00332 0.298019 0.0892327)
(1.00828 0.306168 0.0802082)
(1.01143 0.31559 0.0811683)
(1.01461 0.319789 0.0908461)
(1.01367 0.315603 0.106559)
(1.01005 0.303248 0.119875)
(1.00526 0.288711 0.123825)
(1.00133 0.27765 0.118403)
(0.998547 0.272583 0.106876)
(0.996669 0.273822 0.0935455)
(0.994423 0.279343 0.0833206)
(0.992702 0.286552 0.0784402)
(0.990307 0.293294 0.0787585)
(0.988596 0.29802 0.0828913)
(0.986036 0.299844 0.0887665)
(0.984231 0.298846 0.0944762)
(0.981263 0.295611 0.0986365)
(0.979313 0.291231 0.100718)
(0.976162 0.28653 0.100791)
(0.974499 0.282286 0.0994556)
(0.97165 0.278657 0.0972979)
(0.970628 0.275812 0.0950108)
(0.968235 0.27341 0.0928908)
(0.96779 0.271387 0.091246)
(0.965683 0.269366 0.0899641)
(0.965605 0.26734 0.0891077)
(0.963591 0.265046 0.0883963)
(0.963725 0.262631 0.0878482)
(0.961747 0.259897 0.087222)
(0.962005 0.25711 0.0865801)
(0.960133 0.254109 0.0857932)
(0.960525 0.251178 0.0849439)
(0.958853 0.248152 0.0840074)
(0.959441 0.245297 0.0830089)
(0.958057 0.242452 0.0820362)
(0.958892 0.23976 0.0809827)
(0.957864 0.237216 0.0801018)
(0.958851 0.234664 0.0790512)
(0.958225 0.232452 0.0783014)
(0.959294 0.229926 0.0772916)
(0.958975 0.228047 0.0766782)
(0.960069 0.225523 0.0757051)
(0.959849 0.22386 0.0752072)
(0.960774 0.221245 0.0743591)
(0.959998 0.219567 0.0743586)
(0.960064 0.215384 0.0740371)
(0.95417 0.213314 0.0747906)
(0.950432 0.201015 0.0808181)
(0.883696 0.181532 0.0871901)
(0.998979 0.307769 -0.00419901)
(1.00332 0.311007 -0.00722749)
(1.00828 0.315968 -0.018328)
(1.01143 0.325225 -0.0203257)
(1.01461 0.332212 -0.0124198)
(1.01367 0.333085 0.00381391)
(1.01005 0.325448 0.0202986)
(1.00526 0.312843 0.0285482)
(1.00133 0.300648 0.0268101)
(0.998547 0.292269 0.0174146)
(0.996669 0.289329 0.0043525)
(0.994423 0.291418 -0.00708153)
(0.992702 0.296765 -0.0139494)
(0.990307 0.303275 -0.0157291)
(0.988596 0.309048 -0.0132584)
(0.986036 0.3126 -0.00823339)
(0.984232 0.313415 -0.00249612)
(0.981263 0.311623 0.00245957)
(0.979313 0.3081 0.00579302)
(0.976162 0.303651 0.00731563)
(0.974499 0.299204 0.00735688)
(0.97165 0.295087 0.0064262)
(0.970629 0.291673 0.00513248)
(0.968235 0.288736 0.00385704)
(0.967791 0.286303 0.00291659)
(0.965685 0.283987 0.00232467)
(0.965607 0.281797 0.00213549)
(0.963593 0.279398 0.00216879)
(0.963727 0.276935 0.00239462)
(0.96175 0.274144 0.00264308)
(0.962008 0.271297 0.0028934)
(0.960136 0.268202 0.00307363)
(0.960529 0.265154 0.00317028)
(0.958854 0.261987 0.00321336)
(0.959443 0.258961 0.00315234)
(0.95806 0.255957 0.00310331)
(0.958895 0.25307 0.00293227)
(0.957866 0.25038 0.00288073)
(0.958852 0.247624 0.00267002)
(0.958226 0.245288 0.00264577)
(0.959301 0.242574 0.00246147)
(0.958977 0.240593 0.00244828)
(0.960062 0.23789 0.00232075)
(0.959857 0.236159 0.00236768)
(0.960789 0.2334 0.00234328)
(0.960006 0.231799 0.00285722)
(0.960058 0.227713 0.00385119)
(0.954148 0.225986 0.0052207)
(0.950414 0.216156 0.0147674)
(0.883712 0.199596 0.0268521)
(0.998979 0.291408 -0.0990993)
(1.00332 0.293552 -0.10298)
(1.00828 0.29484 -0.115071)
(1.01143 0.303026 -0.11983)
(1.01461 0.312115 -0.11447)
(1.01367 0.317964 -0.0993034)
(1.01005 0.315793 -0.0812656)
(1.00526 0.306353 -0.0695227)
(1.00133 0.294217 -0.0674078)
(0.998547 0.283345 -0.0737529)
(0.996669 0.276514 -0.0852662)
(0.994423 0.274969 -0.096789)
(0.992702 0.27793 -0.104973)
(0.990308 0.28357 -0.108677)
(0.988596 0.289823 -0.108111)
(0.986036 0.294756 -0.104428)
(0.984232 0.297306 -0.0992241)
(0.981263 0.297132 -0.0939582)
(0.979313 0.294811 -0.0896992)
(0.976163 0.29105 -0.086876)
(0.974499 0.286833 -0.0854614)
(0.97165 0.28263 -0.0850755)
(0.970629 0.278984 -0.0852508)
(0.968236 0.275798 -0.0855545)
(0.96779 0.273195 -0.0856984)
(0.965685 0.270807 -0.0855451)
(0.965608 0.268666 -0.0850459)
(0.963593 0.266392 -0.0842712)
(0.963727 0.26412 -0.0832926)
(0.96175 0.261544 -0.0821929)
(0.962008 0.258912 -0.0810744)
(0.960136 0.256023 -0.079946)
(0.960531 0.253153 -0.0789107)
(0.958856 0.250152 -0.0778947)
(0.959441 0.247252 -0.0770151)
(0.958062 0.244381 -0.0761303)
(0.958896 0.24158 -0.0754067)
(0.957869 0.239007 -0.0746223)
(0.958851 0.236323 -0.0739784)
(0.958225 0.234091 -0.0732715)
(0.959302 0.231461 -0.0726079)
(0.958985 0.229572 -0.0720214)
(0.960062 0.226949 -0.0713135)
(0.959856 0.225323 -0.0707073)
(0.960782 0.222705 -0.0698851)
(0.959999 0.221343 -0.0689096)
(0.960051 0.217769 -0.066708)
(0.95414 0.216541 -0.0648725)
(0.950406 0.210126 -0.0527347)
(0.883681 0.198092 -0.0361126)
(0.998979 0.246522 -0.184299)
(1.00332 0.247361 -0.188652)
(1.00828 0.24485 -0.200551)
(1.01143 0.251164 -0.207605)
(1.01461 0.261464 -0.205314)
(1.01367 0.271715 -0.192698)
(1.01005 0.275225 -0.174876)
(1.00526 0.269875 -0.160789)
(1.00133 0.258986 -0.155026)
(0.998547 0.246684 -0.157701)
(0.996668 0.23663 -0.16654)
(0.994423 0.231604 -0.177021)
(0.992702 0.23189 -0.185721)
(0.990308 0.236108 -0.190987)
(0.988596 0.242229 -0.19238)
(0.986036 0.248057 -0.190402)
(0.984231 0.252092 -0.186239)
(0.981263 0.253556 -0.181178)
(0.979312 0.252664 -0.176411)
(0.976163 0.249959 -0.172564)
(0.974499 0.246384 -0.169914)
(0.97165 0.242506 -0.168248)
(0.970629 0.238984 -0.167287)
(0.968236 0.23586 -0.16659)
(0.967789 0.233339 -0.165922)
(0.965684 0.231115 -0.165037)
(0.965606 0.229233 -0.163901)
(0.963591 0.227308 -0.162461)
(0.963724 0.225448 -0.160825)
(0.961746 0.223339 -0.158982)
(0.962003 0.221183 -0.157104)
(0.960129 0.218785 -0.155138)
(0.960524 0.216379 -0.153266)
(0.95885 0.213841 -0.151373)
(0.959432 0.211353 -0.149646)
(0.958051 0.208898 -0.147911)
(0.958888 0.206459 -0.14636)
(0.95786 0.204254 -0.144815)
(0.958846 0.2019 -0.14338)
(0.958213 0.199993 -0.142019)
(0.959293 0.197701 -0.140569)
(0.958977 0.196089 -0.139425)
(0.960062 0.193808 -0.137948)
(0.959847 0.192449 -0.136874)
(0.960783 0.190214 -0.135279)
(0.959991 0.1892 -0.133953)
(0.960042 0.186489 -0.130754)
(0.954133 0.185897 -0.128625)
(0.950397 0.183576 -0.115098)
(0.883682 0.177297 -0.095564)
(0.99944 0.405906 0.293683)
(0.999393 0.396262 0.309072)
(0.998193 0.373464 0.317701)
(1.00513 0.367687 0.310382)
(1.01192 0.373295 0.296261)
(1.01652 0.389166 0.277638)
(1.01667 0.410554 0.265143)
(1.01346 0.42971 0.26478)
(1.00929 0.442007 0.274729)
(1.00493 0.444651 0.291369)
(1.0006 0.436494 0.307788)
(0.996329 0.422372 0.31785)
(0.992665 0.406227 0.3203)
(0.988942 0.391511 0.316249)
(0.986445 0.380117 0.307922)
(0.984282 0.372533 0.297845)
(0.983719 0.368079 0.287987)
(0.983147 0.365694 0.279668)
(0.984024 0.364141 0.273357)
(0.984175 0.36253 0.268986)
(0.985561 0.36027 0.266055)
(0.985685 0.357147 0.264002)
(0.987084 0.353214 0.262208)
(0.986964 0.348651 0.26033)
(0.988342 0.343719 0.258049)
(0.9881 0.338673 0.255409)
(0.989607 0.33364 0.252325)
(0.9894 0.328824 0.249067)
(0.991158 0.324143 0.245577)
(0.991013 0.319758 0.242157)
(0.993018 0.315478 0.238684)
(0.992877 0.311481 0.235381)
(0.995032 0.307524 0.23214)
(0.994837 0.303811 0.22906)
(0.997061 0.300136 0.226107)
(0.996763 0.296632 0.223248)
(0.998989 0.293232 0.220568)
(0.998623 0.289857 0.217953)
(1.00084 0.286748 0.215451)
(1.00041 0.283502 0.213118)
(1.0026 0.280567 0.210657)
(1.0021 0.277516 0.208622)
(1.0043 0.2746 0.206136)
(1.00372 0.271821 0.204338)
(1.00601 0.268756 0.201966)
(1.0051 0.266062 0.200412)
(1.00745 0.261815 0.198675)
(1.00369 0.257409 0.197446)
(1.00613 0.244375 0.201942)
(0.97162 0.217778 0.206386)
(0.99944 0.476793 0.153877)
(0.999393 0.472376 0.171493)
(0.998192 0.453361 0.186745)
(1.00513 0.4456 0.181569)
(1.01193 0.446576 0.16641)
(1.01652 0.455922 0.143785)
(1.01667 0.472389 0.125295)
(1.01346 0.490494 0.119038)
(1.00929 0.505269 0.124701)
(1.00493 0.512935 0.139702)
(1.0006 0.510248 0.157835)
(0.996329 0.499917 0.171769)
(0.992666 0.485318 0.179094)
(0.988943 0.470073 0.179792)
(0.986444 0.456667 0.175393)
(0.984281 0.446344 0.168147)
(0.98372 0.439059 0.160146)
(0.983147 0.434217 0.152971)
(0.984024 0.430788 0.147452)
(0.984175 0.427905 0.143795)
(0.985561 0.424854 0.141706)
(0.985684 0.421249 0.140716)
(0.987085 0.416954 0.140226)
(0.986963 0.412035 0.139845)
(0.988341 0.406632 0.139201)
(0.988101 0.401017 0.138251)
(0.989607 0.395276 0.136872)
(0.989399 0.389688 0.135265)
(0.991159 0.384159 0.133388)
(0.991013 0.37893 0.131485)
(0.993018 0.373784 0.129504)
(0.992879 0.368959 0.127598)
(0.995034 0.364193 0.125736)
(0.994835 0.359707 0.123956)
(0.997059 0.355297 0.122285)
(0.99677 0.351088 0.120651)
(0.998993 0.347029 0.119151)
(0.998624 0.343013 0.117704)
(1.00084 0.339283 0.116284)
(1.00042 0.335474 0.115071)
(1.00261 0.331928 0.113632)
(1.0021 0.328395 0.112651)
(1.00429 0.324844 0.111178)
(1.00372 0.321646 0.110327)
(1.00601 0.318012 0.109024)
(1.00511 0.314975 0.108387)
(1.00746 0.310402 0.108046)
(1.0037 0.305834 0.108234)
(1.00614 0.294824 0.11653)
(0.971627 0.270911 0.128971)
(0.99944 0.501008 -0.000991153)
(0.999394 0.502251 0.0171276)
(0.998192 0.488879 0.037508)
(1.00513 0.479898 0.0349839)
(1.01193 0.476139 0.0202715)
(1.01652 0.478047 -0.00414057)
(1.01667 0.487988 -0.0268209)
(1.01346 0.503267 -0.0383603)
(1.0093 0.51907 -0.0375351)
(1.00493 0.531003 -0.0256358)
(1.0006 0.534052 -0.00756324)
(0.996329 0.52853 0.00887282)
(0.992666 0.516905 0.0203527)
(0.988943 0.502621 0.0257331)
(0.986445 0.488512 0.0256954)
(0.98428 0.47646 0.0219934)
(0.98372 0.467062 0.0166282)
(0.983147 0.460237 0.011301)
(0.984023 0.455268 0.00711084)
(0.984175 0.451394 0.00452826)
(0.985562 0.447848 0.00348622)
(0.985684 0.444116 0.00365649)
(0.987085 0.43988 0.00451891)
(0.986964 0.435085 0.00567455)
(0.98834 0.429747 0.00672763)
(0.988102 0.424111 0.00756314)
(0.989609 0.418226 0.0080258)
(0.989399 0.412414 0.00822785)
(0.99116 0.406582 0.0081523)
(0.991014 0.401023 0.00795407)
(0.993019 0.395519 0.00765842)
(0.99288 0.390343 0.00733548)
(0.995038 0.385235 0.00703737)
(0.994838 0.380419 0.00672779)
(0.997055 0.375704 0.00650752)
(0.996769 0.371196 0.00625649)
(0.998998 0.366877 0.0060875)
(0.998627 0.362611 0.00594945)
(1.00084 0.358625 0.00574738)
(1.00041 0.354624 0.00577546)
(1.00261 0.350805 0.00549621)
(1.00211 0.347148 0.00565369)
(1.00429 0.343316 0.00536189)
(1.00372 0.340001 0.0055286)
(1.00601 0.336141 0.00541378)
(1.00511 0.333054 0.00575304)
(1.00747 0.328596 0.00684525)
(1.00371 0.324306 0.00843652)
(1.00614 0.316397 0.0197286)
(0.971627 0.297502 0.0389483)
(0.99944 0.47618 -0.155763)
(0.999393 0.482962 -0.138916)
(0.998192 0.476545 -0.1154)
(1.00513 0.467219 -0.115024)
(1.01192 0.459094 -0.127854)
(1.01652 0.453374 -0.151657)
(1.01667 0.455822 -0.17631)
(1.01346 0.46678 -0.192006)
(1.00929 0.482062 -0.1961)
(1.00493 0.49709 -0.188464)
(1.0006 0.505579 -0.172218)
(0.996329 0.505409 -0.15489)
(0.992666 0.497896 -0.140382)
(0.988943 0.485971 -0.130848)
(0.986446 0.47254 -0.126519)
(0.98428 0.459935 -0.126311)
(0.983719 0.449343 -0.128513)
(0.983148 0.441206 -0.131475)
(0.984023 0.435185 -0.133926)
(0.984175 0.430699 -0.135186)
(0.985562 0.427005 -0.135075)
(0.985684 0.423508 -0.13376)
(0.987084 0.419747 -0.131631)
(0.986964 0.415547 -0.129049)
(0.98834 0.410796 -0.126402)
(0.9881 0.405692 -0.123865)
(0.98961 0.400238 -0.121606)
(0.989399 0.394768 -0.119615)
(0.991159 0.389198 -0.117876)
(0.991014 0.383852 -0.116347)
(0.993017 0.378523 -0.114927)
(0.992879 0.373501 -0.113636)
(0.995037 0.36855 -0.112341)
(0.994842 0.363874 -0.111149)
(0.997056 0.359319 -0.109905)
(0.996763 0.354948 -0.108743)
(0.998999 0.35079 -0.107571)
(0.998629 0.346693 -0.106375)
(1.00085 0.342842 -0.105348)
(1.00041 0.339047 -0.104081)
(1.0026 0.335326 -0.103168)
(1.00211 0.331897 -0.101894)
(1.0043 0.32817 -0.100988)
(1.00372 0.32507 -0.0997961)
(1.00601 0.32135 -0.0987266)
(1.00511 0.318522 -0.0974446)
(1.00747 0.314624 -0.0950219)
(1.00371 0.311038 -0.0921794)
(1.00615 0.307 -0.0789923)
(0.971621 0.294958 -0.0548695)
(0.99944 0.404741 -0.295287)
(0.999393 0.416396 -0.281358)
(0.998192 0.417561 -0.257014)
(1.00513 0.408811 -0.253776)
(1.01192 0.397111 -0.263466)
(1.01652 0.384315 -0.284324)
(1.01667 0.379035 -0.308536)
(1.01346 0.384604 -0.326858)
(1.00929 0.397867 -0.335472)
(1.00493 0.414516 -0.332844)
(1.0006 0.427613 -0.320017)
(0.996329 0.432814 -0.303486)
(0.992665 0.430151 -0.287372)
(0.988943 0.421751 -0.274623)
(0.986446 0.410313 -0.266355)
(0.984281 0.398389 -0.262255)
(0.983719 0.387638 -0.261071)
(0.983148 0.378986 -0.261378)
(0.984023 0.372502 -0.26185)
(0.984174 0.367845 -0.261667)
(0.985562 0.364362 -0.260418)
(0.985685 0.361445 -0.258084)
(0.987084 0.358524 -0.254895)
(0.986964 0.355329 -0.251139)
(0.988341 0.351631 -0.247155)
(0.988099 0.347557 -0.243166)
(0.989609 0.343068 -0.239334)
(0.9894 0.338479 -0.235755)
(0.991158 0.333717 -0.232375)
(0.991015 0.329108 -0.229264)
(0.993018 0.32448 -0.226268)
(0.992877 0.320104 -0.223486)
(0.995035 0.315797 -0.220728)
(0.994841 0.31172 -0.21815)
(0.997061 0.307772 -0.215567)
(0.99676 0.303973 -0.21311)
(0.998993 0.300377 -0.210708)
(0.998628 0.296853 -0.208303)
(1.00085 0.293509 -0.206126)
(1.00041 0.290293 -0.203759)
(1.00259 0.28704 -0.201729)
(1.00211 0.284163 -0.199463)
(1.0043 0.280899 -0.197457)
(1.00372 0.278331 -0.195359)
(1.00601 0.275124 -0.193188)
(1.00511 0.272818 -0.191106)
(1.00746 0.26986 -0.187597)
(1.0037 0.267332 -0.183792)
(1.00613 0.26757 -0.17001)
(0.971598 0.263583 -0.143351)
(1.00363 0.572413 0.399439)
(1.02687 0.617893 0.363297)
(1.02397 0.661551 0.362258)
(1.01816 0.684219 0.391166)
(1.01092 0.683698 0.43183)
(1.0049 0.659066 0.469399)
(0.999009 0.618218 0.488812)
(0.994009 0.575824 0.485498)
(0.98951 0.541012 0.466638)
(0.9874 0.51781 0.437863)
(0.987255 0.507853 0.406958)
(0.988778 0.504716 0.381304)
(0.992255 0.505653 0.361854)
(0.996201 0.507329 0.349355)
(1.00015 0.507292 0.342689)
(1.00322 0.504575 0.340133)
(1.00579 0.498924 0.339415)
(1.00719 0.491081 0.339002)
(1.00846 0.481727 0.337467)
(1.00882 0.472026 0.334548)
(1.00965 0.462457 0.329998)
(1.0098 0.4538 0.324448)
(1.01082 0.445908 0.318147)
(1.01116 0.439059 0.311781)
(1.0125 0.432795 0.305504)
(1.01298 0.427247 0.299746)
(1.01448 0.421881 0.294404)
(1.01492 0.416877 0.289681)
(1.0164 0.411824 0.285307)
(1.01667 0.406923 0.281409)
(1.01807 0.401943 0.277668)
(1.01814 0.397045 0.274232)
(1.01945 0.392119 0.270787)
(1.01936 0.387307 0.267572)
(1.02058 0.382481 0.264238)
(1.02038 0.377882 0.261133)
(1.0215 0.37321 0.257893)
(1.02122 0.368922 0.254853)
(1.02228 0.36442 0.251796)
(1.02193 0.360477 0.248782)
(1.02294 0.356171 0.246054)
(1.02254 0.352475 0.242945)
(1.02356 0.348457 0.240699)
(1.02308 0.344779 0.237381)
(1.02419 0.341153 0.235786)
(1.02366 0.337183 0.232239)
(1.02498 0.333631 0.232007)
(1.02494 0.327171 0.229006)
(1.02802 0.319378 0.234528)
(1.0299 0.291892 0.241302)
(1.00363 0.667831 0.203005)
(1.02687 0.699915 0.154575)
(1.02397 0.741116 0.140093)
(1.01816 0.77161 0.160593)
(1.01092 0.783681 0.199422)
(1.00491 0.771863 0.242752)
(0.99901 0.739007 0.273844)
(0.994008 0.697666 0.283802)
(0.989508 0.658731 0.276627)
(0.987398 0.627777 0.256425)
(0.987254 0.608762 0.230096)
(0.988779 0.597839 0.206668)
(0.992257 0.592716 0.18789)
(0.996203 0.590451 0.175489)
(1.00015 0.588361 0.169161)
(1.00321 0.584991 0.167564)
(1.00579 0.579393 0.168621)
(1.00719 0.571801 0.170654)
(1.00847 0.562429 0.172087)
(1.00882 0.552302 0.172313)
(1.00965 0.541797 0.170944)
(1.0098 0.531852 0.168337)
(1.01082 0.522397 0.164784)
(1.01116 0.513917 0.160839)
(1.0125 0.506015 0.156807)
(1.01298 0.498957 0.153052)
(1.01448 0.492206 0.149627)
(1.01492 0.485987 0.146687)
(1.0164 0.479831 0.144083)
(1.01667 0.473966 0.141888)
(1.01806 0.468071 0.139868)
(1.01814 0.46235 0.138112)
(1.01944 0.456597 0.136358)
(1.01936 0.451028 0.134792)
(1.02058 0.445406 0.133114)
(1.02038 0.440073 0.131584)
(1.0215 0.434632 0.129944)
(1.02122 0.429612 0.128374)
(1.02228 0.424389 0.126857)
(1.02193 0.419703 0.125203)
(1.02294 0.414765 0.123945)
(1.02254 0.410292 0.122129)
(1.02356 0.405771 0.121236)
(1.02308 0.401246 0.119221)
(1.02419 0.397312 0.118824)
(1.02366 0.392444 0.116676)
(1.02498 0.388992 0.117546)
(1.02494 0.381921 0.11669)
(1.02801 0.376217 0.124348)
(1.0299 0.352175 0.139285)
(1.00363 0.697877 -0.0133025)
(1.02687 0.713425 -0.0692755)
(1.02398 0.748133 -0.0957833)
(1.01816 0.783469 -0.085708)
(1.01092 0.806952 -0.0525006)
(1.00491 0.809102 -0.00765163)
(0.999013 0.787457 0.0320656)
(0.994009 0.751215 0.0543169)
(0.989507 0.711971 0.0595336)
(0.987399 0.676296 0.04989)
(0.987253 0.650078 0.0307147)
(0.988776 0.632444 0.0118012)
(0.992258 0.621764 -0.00447004)
(0.996204 0.615776 -0.0155587)
(1.00016 0.611836 -0.0209263)
(1.00321 0.608143 -0.0214017)
(1.00579 0.603145 -0.0186759)
(1.00719 0.596551 -0.0143983)
(1.00847 0.588077 -0.0101392)
(1.00882 0.578514 -0.00679306)
(1.00965 0.568102 -0.00484409)
(1.0098 0.55784 -0.00425058)
(1.01082 0.547755 -0.00470853)
(1.01115 0.538466 -0.00584153)
(1.0125 0.529706 -0.00724154)
(1.01298 0.521831 -0.0086279)
(1.01448 0.51435 -0.00979706)
(1.01492 0.507529 -0.0106685)
(1.0164 0.500873 -0.0112404)
(1.01667 0.494617 -0.011522)
(1.01806 0.488388 -0.0116221)
(1.01814 0.482402 -0.0115269)
(1.01944 0.476387 -0.0114197)
(1.01936 0.470606 -0.0111861)
(1.02058 0.464741 -0.0110422)
(1.02038 0.459197 -0.0108461)
(1.02151 0.453519 -0.0107216)
(1.02122 0.44826 -0.0106637)
(1.02227 0.442826 -0.0104919)
(1.02193 0.437857 -0.0106216)
(1.02294 0.432769 -0.0102928)
(1.02253 0.427957 -0.0106354)
(1.02356 0.42338 -0.0100942)
(1.02308 0.418451 -0.0106055)
(1.02419 0.414586 -0.00976678)
(1.02366 0.409294 -0.0103085)
(1.02498 0.40628 -0.00841405)
(1.02494 0.399292 -0.00704132)
(1.02802 0.396232 0.00200722)
(1.02989 0.377983 0.0236479)
(1.00363 0.659611 -0.228307)
(1.02687 0.657101 -0.286343)
(1.02398 0.681918 -0.322284)
(1.01816 0.718637 -0.323622)
(1.01092 0.751237 -0.299287)
(1.0049 0.767144 -0.257295)
(0.999012 0.758826 -0.212845)
(0.994012 0.731228 -0.180487)
(0.989509 0.695516 -0.163394)
(0.987401 0.658614 -0.161534)
(0.987251 0.627754 -0.171662)
(0.988773 0.605142 -0.184214)
(0.992256 0.589953 -0.196396)
(0.996204 0.580827 -0.205088)
(1.00016 0.575418 -0.208971)
(1.00322 0.571764 -0.208274)
(1.00579 0.567859 -0.204139)
(1.00719 0.562907 -0.198039)
(1.00847 0.556164 -0.191371)
(1.00882 0.548098 -0.185235)
(1.00965 0.538797 -0.18016)
(1.00981 0.529221 -0.176421)
(1.01082 0.519491 -0.173741)
(1.01115 0.510313 -0.171948)
(1.01249 0.501543 -0.170575)
(1.01298 0.493625 -0.169463)
(1.01448 0.486147 -0.168263)
(1.01492 0.479389 -0.166982)
(1.0164 0.472883 -0.16546)
(1.01667 0.466849 -0.163794)
(1.01806 0.460895 -0.161965)
(1.01814 0.455232 -0.160025)
(1.01944 0.449544 -0.158068)
(1.01936 0.444113 -0.156062)
(1.02058 0.43858 -0.154112)
(1.02037 0.433364 -0.152212)
(1.02151 0.428003 -0.150335)
(1.02123 0.423021 -0.148655)
(1.02228 0.417908 -0.146809)
(1.02193 0.413147 -0.1454)
(1.02294 0.408404 -0.143519)
(1.02253 0.403723 -0.142356)
(1.02355 0.399539 -0.14043)
(1.02308 0.394689 -0.139397)
(1.02419 0.391272 -0.137398)
(1.02365 0.386071 -0.136279)
(1.02498 0.383791 -0.13355)
(1.02494 0.377567 -0.130088)
(1.02801 0.377456 -0.120533)
(1.02989 0.36678 -0.0943065)
(1.00363 0.556775 -0.420964)
(1.02687 0.536457 -0.475385)
(1.02398 0.548952 -0.51723)
(1.01816 0.583452 -0.529859)
(1.01092 0.621978 -0.516787)
(1.0049 0.650095 -0.481757)
(0.999008 0.655924 -0.436915)
(0.99401 0.639667 -0.397618)
(0.989511 0.610978 -0.370331)
(0.987402 0.576453 -0.357153)
(0.987253 0.543982 -0.357236)
(0.988774 0.518608 -0.36219)
(0.992254 0.500394 -0.369092)
(0.996201 0.489024 -0.374542)
(1.00016 0.482675 -0.376563)
(1.00322 0.479413 -0.374766)
(1.00579 0.476985 -0.36962)
(1.00719 0.474163 -0.362293)
(1.00846 0.46981 -0.353869)
(1.00882 0.464034 -0.345545)
(1.00965 0.456752 -0.337844)
(1.0098 0.448799 -0.331326)
(1.01082 0.440372 -0.325767)
(1.01116 0.432203 -0.321225)
(1.0125 0.424289 -0.31721)
(1.01298 0.417099 -0.313708)
(1.01448 0.410358 -0.310256)
(1.01492 0.404322 -0.306956)
(1.0164 0.398604 -0.303498)
(1.01667 0.393382 -0.300044)
(1.01807 0.388285 -0.296466)
(1.01814 0.383504 -0.29287)
(1.01944 0.3787 -0.289251)
(1.01936 0.374155 -0.285668)
(1.02058 0.369492 -0.282106)