/*--------------------------------*- C++ -*----------------------------------*\
| =========                 |                                                 |
| \\      /  F ield         | OpenFOAM: The Open Source CFD Toolbox           |
|  \\    /   O peration     | Version:  v2006                                 |
|   \\  /    A nd           | Website:  www.openfoam.com                      |
|    \\/     M anipulation  |                                                 |
\*---------------------------------------------------------------------------*/
FoamFile
{
    version     2.0;
    format      ascii;
    class       volScalarField;
    location    "200";
    object      epsilon;
}
// * * * * * * * * * * * * * * * * * * * * * * * * * * * * * * * * * * * * * //

dimensions      [0 2 -3 0 0 0 0];


internalField   nonuniform List<scalar> 
1250
(
8.7201e-05
0.000102501
0.000122731
0.000137448
0.000152964
0.000159424
0.000171776
0.000193842
0.000228516
0.00027192
0.000321925
0.000368058
0.000408093
0.000434795
0.000450321
0.000453784
0.000454605
0.000457827
0.000465608
0.000481013
0.000502701
0.00052697
0.000553578
0.000578549
0.000601607
0.000621194
0.000636457
0.000646955
0.000655459
0.000662567
0.000668272
0.000670256
0.000670968
0.000672106
0.000675284
0.000688466
0.000751242
0.00114072
0.00180611
0.0023752
0.0027795
0.00303773
0.00327435
0.00331543
0.003437
0.00351947
0.00350519
0.00360376
0.00363486
0.00362038
8.72047e-05
0.000102494
0.000122728
0.000137457
0.000152961
0.00015942
0.000171785
0.000193854
0.000228539
0.000271913
0.000321926
0.000368053
0.000408085
0.000434793
0.00045032
0.000453783
0.000454607
0.000457826
0.00046561
0.000481009
0.0005027
0.000527022
0.000553588
0.000578512
0.000601515
0.000621166
0.000636773
0.00064755
0.000655628
0.0006624
0.000668126
0.000670117
0.000670856
0.00067186
0.000674927
0.000688262
0.000755593
0.00113873
0.00177663
0.00234878
0.00277714
0.00303795
0.00327425
0.00331501
0.00343641
0.00351842
0.00350285
0.0036013
0.0036328
0.00361636
8.721e-05
0.000102498
0.000122698
0.000137458
0.000152945
0.000159402
0.000171793
0.000193835
0.000228514
0.000271916
0.000321928
0.000368057
0.000408083
0.00043479
0.00045032
0.000453784
0.000454606
0.000457826
0.00046561
0.000481007
0.000502687
0.000527006
0.000553616
0.000578549
0.000601613
0.000620973
0.000636676
0.0006475
0.000655979
0.000662465
0.000667648
0.000669531
0.000670829
0.000671869
0.000674913
0.000687732
0.000753069
0.00116192
0.00179237
0.00233069
0.0027735
0.00303123
0.00327604
0.00330978
0.00343166
0.00351414
0.00349704
0.00359608
0.00362801
0.00361057
8.72058e-05
0.000102495
0.000122721
0.000137455
0.000152944
0.0001594
0.000171774
0.000193863
0.000228515
0.000271905
0.000321919
0.000368063
0.000408096
0.000434794
0.000450321
0.000453783
0.000454606
0.000457826
0.000465609
0.000481006
0.000502677
0.000526985
0.000553615
0.000578522
0.000601596
0.000621019
0.000636585
0.000647416
0.000655919
0.000662686
0.000668146
0.000669499
0.000670761
0.000671851
0.000674993
0.000687836
0.0007548
0.00117232
0.00180733
0.00233482
0.00277108
0.00302081
0.00326843
0.00330083
0.00342293
0.00350745
0.00348987
0.00358912
0.00362164
0.00360464
8.72114e-05
0.000102498
0.000122697
0.000137453
0.000152955
0.000159422
0.000171782
0.000193863
0.000228542
0.000271912
0.000321921
0.000368062
0.000408096
0.000434796
0.000450321
0.000453783
0.000454607
0.000457826
0.000465609
0.000481015
0.00050266
0.000526955
0.000553613
0.000578453
0.000601532
0.000620885
0.000636339
0.000647226
0.000655741
0.000662624
0.000667952
0.000669563
0.000670672
0.000671757
0.000675142
0.00068879
0.000758735
0.00116192
0.00181949
0.00236986
0.00277334
0.00302317
0.00326799
0.00330249
0.00342471
0.00351015
0.00349409
0.00359287
0.00362543
0.00361099
8.64459e-05
8.73887e-05
9.08966e-05
9.75714e-05
0.000105716
0.000112343
0.000119702
0.000129874
0.000141769
0.000155009
0.000168275
0.000182348
0.000198077
0.000214987
0.000233179
0.000252322
0.000273157
0.000295689
0.000319488
0.000344614
0.000370129
0.00039605
0.000422564
0.000449113
0.000476606
0.000503124
0.000531334
0.00055706
0.000583631
0.000608057
0.000631248
0.000653081
0.000672825
0.000689118
0.000702937
0.000717145
0.000736571
0.000773367
0.000872553
0.00108393
0.00133234
0.00152199
0.00172732
0.001898
0.00202002
0.00214185
0.00219887
0.00221965
0.00227626
0.00237374
8.64459e-05
8.73887e-05
9.08901e-05
9.7557e-05
0.000105718
0.000112344
0.000119722
0.000129877
0.000141782
0.000155013
0.000168274
0.000182356
0.00019808
0.000214987
0.000233177
0.00025232
0.000273156
0.00029569
0.000319487
0.000344611
0.000370145
0.00039605
0.000422587
0.000449125
0.00047668
0.000503161
0.000531384
0.000557168
0.000583722
0.00060798
0.000631246
0.000653015
0.00067272
0.000689325
0.000702834
0.000716226
0.000732257
0.000786861
0.000902814
0.00107037
0.00134601
0.00151006
0.00170997
0.00187892
0.00203059
0.00215177
0.00220925
0.00221662
0.00227052
0.00236481
8.6446e-05
8.73884e-05
9.08988e-05
9.75664e-05
0.000105745
0.000112346
0.000119727
0.000129879
0.000141775
0.000155016
0.000168273
0.000182355
0.000198079
0.000214988
0.000233176
0.000252317
0.000273157
0.000295683
0.000319488
0.000344609
0.000370135
0.000396039
0.000422589
0.000449106
0.000476638
0.000503126
0.000531342
0.00055709
0.000583647
0.000608038
0.000631227
0.000653077
0.000672628
0.000689397
0.000702529
0.000717131
0.000740897
0.000776054
0.000886356
0.00108952
0.00133395
0.00150732
0.00173055
0.00187492
0.00203845
0.00216697
0.00218969
0.00221788
0.00227626
0.00237238
8.64459e-05
8.73889e-05
9.08888e-05
9.75589e-05
0.000105715
0.000112353
0.000119706
0.000129868
0.000141777
0.000155022
0.000168277
0.000182355
0.000198079
0.000214989
0.000233177
0.000252321
0.000273172
0.000295691
0.000319494
0.000344612
0.000370119
0.000396034
0.000422567
0.000449101
0.000476668
0.000503152
0.000531316
0.000557137
0.000583673
0.000607988
0.000631143
0.00065315
0.000672559
0.00068949
0.000702829
0.000715194
0.000734365
0.00077352
0.000884418
0.0010684
0.00135171
0.00153197
0.00172202
0.001893
0.00202471
0.00217491
0.00221402
0.0022181
0.00227331
0.00236524
8.6446e-05
8.73887e-05
9.08899e-05
9.75526e-05
0.000105737
0.000112347
0.000119729
0.000129875
0.000141774
0.000155017
0.000168282
0.000182354
0.000198077
0.00021499
0.000233179
0.000252321
0.000273177
0.000295691
0.000319495
0.000344614
0.000370133
0.00039603
0.000422579
0.000449108
0.000476627
0.000503132
0.000531336
0.00055709
0.000583675
0.000607913
0.000631229
0.00065314
0.000672485
0.000689523
0.000703029
0.000714986
0.000738779
0.000797205
0.00089998
0.001069
0.00133134
0.0015203
0.00172261
0.00189025
0.00203769
0.00216737
0.00219117
0.00221476
0.00227421
0.00237002
0.000106171
0.000114264
0.000131726
0.000163167
0.000200714
0.000246823
0.000294678
0.000352944
0.000415945
0.000494319
0.000579524
0.000680049
0.000786218
0.000898007
0.0010088
0.00111762
0.00122137
0.00132142
0.00141455
0.00150487
0.00158726
0.00166679
0.00173617
0.00180085
0.00185516
0.00189988
0.0019375
0.00196138
0.00198098
0.00198807
0.00199131
0.00198695
0.00197716
0.00196362
0.00194384
0.00192035
0.00189754
0.00186427
0.00184314
0.00182523
0.00183246
0.00186015
0.00188844
0.00189701
0.00193087
0.00199071
0.00205089
0.00207954
0.00209617
0.00215486
0.000106171
0.000114261
0.000131749
0.000163082
0.000200733
0.000246816
0.000294824
0.000352974
0.000416006
0.000494397
0.000579514
0.000680049
0.000786229
0.000898025
0.0010088
0.00111766
0.00122129
0.00132131
0.00141456
0.00150484
0.00158723
0.00166675
0.00173636
0.00180071
0.00185499
0.0018996
0.00193706
0.0019617
0.00198122
0.00198777
0.00199063
0.00198657
0.00197658
0.00196297
0.00194333
0.00192075
0.0018967
0.00186374
0.00185037
0.00182585
0.00182616
0.0018449
0.00188825
0.00192244
0.00196668
0.00202266
0.00202885
0.0020581
0.00206637
0.00212227
0.000106172
0.000114259
0.000131869
0.000163094
0.000200889
0.000246874
0.000294711
0.000352962
0.000415956
0.000494373
0.000579543
0.000679962
0.000786142
0.000898038
0.0010088
0.00111766
0.00122131
0.00132131
0.00141453
0.00150487
0.00158719
0.00166684
0.00173627
0.00180087
0.00185471
0.0018997
0.0019373
0.00196124
0.00198055
0.00198838
0.00199011
0.00198583
0.00197685
0.0019632
0.00194299
0.00191988
0.00189722
0.00186562
0.00183934
0.00183293
0.00182673
0.00183258
0.00186212
0.00189633
0.00193923
0.00198432
0.00204934
0.00208771
0.00208847
0.00213787
0.000106172
0.000114262
0.000131745
0.000163149
0.000200723
0.000246822
0.000294798
0.000352958
0.000416002
0.000494425
0.000579584
0.000679977
0.000786137
0.000898031
0.0010088
0.00111765
0.00122135
0.00132135
0.0014145
0.00150484
0.00158721
0.00166676
0.00173615
0.00180072
0.00185492
0.00189974
0.00193678
0.00196137
0.00198072
0.00198779
0.00199072
0.00198661
0.00197627
0.00196341
0.00194208
0.00191938
0.00189709
0.00186517
0.00184615
0.00182641
0.00182665
0.00183835
0.00188164
0.00192897
0.00194899
0.00199147
0.00203429
0.00207319
0.00207329
0.00212125
0.000106172
0.000114258
0.000131846
0.000163089
0.000200841
0.000246832
0.000294768
0.000352957
0.000415949
0.000494338
0.000579592
0.000680003
0.000786164
0.000898022
0.00100879
0.00111762
0.00122139
0.00132142
0.00141451
0.00150481
0.00158726
0.00166663
0.00173628
0.00180066
0.00185465
0.00189946
0.00193702
0.00196147
0.00198024
0.00198715
0.00198987
0.00198584
0.00197684
0.00196277
0.00194298
0.00192019
0.0018962
0.00186495
0.00184239
0.00184148
0.00184644
0.00185156
0.00186326
0.00191699
0.00197884
0.00203969
0.00206598
0.00210066
0.0021005
0.00213445
0.000216827
0.000373391
0.000512819
0.000765556
0.00105266
0.00145532
0.00188239
0.00236278
0.00282965
0.00327859
0.00366304
0.00399009
0.00425023
0.004479
0.00467918
0.00487102
0.00504314
0.00520245
0.00533182
0.00543872
0.00550609
0.00555014
0.00554797
0.00553116
0.00548977
0.00542553
0.00534848
0.00525544
0.00515797
0.00504948
0.00494697
0.00482948
0.00472281
0.00460964
0.0044993
0.00439187
0.00428864
0.00418815
0.0040878
0.00399201
0.0038996
0.00381263
0.00372547
0.00364444
0.00356647
0.00349922
0.00343811
0.00337846
0.0033092
0.00309954
0.000216809
0.000373396
0.000512781
0.000765767
0.00105224
0.00145521
0.00188243
0.00236282
0.00282983
0.00327875
0.0036629
0.00398996
0.00425024
0.00447919
0.00467924
0.0048711
0.00504316
0.00520225
0.00533177
0.00543861
0.00550624
0.00554994
0.00554769
0.00553072
0.00549082
0.00542577
0.00534745
0.00525436
0.00515862
0.00505062
0.00494574
0.00483069
0.00472386
0.0046099
0.00450087
0.00439322
0.00428973
0.00418833
0.00408722
0.00399255
0.00389912
0.00381176
0.00372626
0.00364466
0.00356758
0.00349829
0.00343336
0.00337044
0.00329954
0.00309031
0.000216828
0.000373289
0.000513381
0.000765749
0.00105272
0.00145539
0.00188222
0.0023626
0.00282989
0.00327889
0.0036631
0.00398973
0.00424998
0.00447908
0.00467924
0.00487115
0.00504326
0.00520225
0.00533173
0.00543856
0.00550605
0.00555015
0.005548
0.00553108
0.00548998
0.0054251
0.00534782
0.00525515
0.00515737
0.00504919
0.0049463
0.00482934
0.00472262
0.0046081
0.00449914
0.00439195
0.00428829
0.004187
0.00408592
0.00399197
0.00389868
0.00381143
0.00372577
0.00364295
0.00356758
0.00350201
0.0034362
0.00337166
0.00330052
0.00308766
0.000216801
0.000373425
0.000512818
0.000765825
0.00105218
0.00145541
0.00188211
0.00236258
0.00282964
0.00327892
0.00366328
0.00398987
0.0042499
0.00447905
0.00467916
0.00487115
0.00504336
0.00520234
0.00533169
0.00543861
0.00550604
0.00554996
0.00554773
0.00553067
0.00549036
0.00542518
0.00534791
0.00525479
0.00515892
0.00504917
0.00494506
0.0048278
0.00472189
0.00460888
0.00449996
0.00439306
0.00428891
0.00418769
0.00408644
0.00399249
0.00389936
0.00381188
0.00372526
0.00364565
0.00356572
0.00350102
0.00344173
0.00338088
0.00330977
0.00309634
0.000216813
0.000373396
0.000513296
0.000765866
0.00105219
0.00145534
0.00188215
0.00236264
0.00282952
0.00327881
0.00366334
0.00399002
0.00425006
0.00447892
0.00467914
0.00487102
0.00504338
0.00520245
0.00533179
0.00543852
0.0055061
0.00554972
0.0055475
0.00553059
0.00549028
0.00542476
0.00534737
0.0052534
0.00515856
0.00504996
0.00494582
0.00482931
0.00472313
0.00460756
0.00449896
0.00439195
0.00428904
0.00418676
0.00408534
0.00399182
0.00389979
0.00381223
0.00372494
0.00364486
0.00356688
0.00349865
0.00343556
0.0033743
0.00330445
0.00309147
0.0047744
0.00494854
0.00507012
0.00515162
0.00518885
0.00521428
0.0052489
0.00532143
0.00542089
0.00555582
0.00569944
0.00585657
0.00599588
0.0061353
0.00625351
0.00636735
0.00646122
0.00655289
0.00662983
0.00670896
0.00677527
0.00684104
0.00688886
0.00693668
0.0069602
0.00698285
0.00698282
0.00697608
0.0069587
0.00692816
0.00688815
0.0068313
0.00677707
0.00670967
0.00664498
0.00657206
0.00649842
0.00642198
0.00634756
0.00626898
0.00619917
0.00612901
0.00606403
0.00599636
0.0059375
0.00587803
0.00582989
0.00579584
0.00576707
0.00583916
0.00477441
0.00494854
0.00507015
0.00515163
0.00518878
0.00521431
0.00524903
0.00532141
0.00542081
0.00555555
0.00569903
0.00585727
0.0059962
0.00613511
0.00625333
0.00636722
0.006461
0.00655316
0.00662984
0.00670896
0.00677507
0.00684073
0.00688872
0.00693619
0.00696173
0.00698315
0.00698265
0.00697541
0.00695804
0.00692662
0.0068904
0.00683445
0.00678166
0.0067143
0.00664885
0.0065762
0.00650307
0.00642499
0.0063513
0.00627215
0.00620101
0.0061304
0.00606441
0.00599724
0.00593794
0.0058779
0.00583153
0.00579718
0.0057698
0.00584023
0.00477444
0.00494856
0.0050701
0.00515165
0.00518875
0.00521423
0.00524901
0.00532168
0.00542077
0.0055555
0.00569858
0.00585699
0.00599678
0.00613552
0.0062533
0.00636711
0.00646075
0.00655306
0.00662991
0.00670916
0.00677542
0.0068403
0.00688835
0.00693548
0.00696117
0.00698362
0.00698314
0.00697569
0.00695687
0.00692445
0.00688743
0.00682916
0.00678163
0.00670842
0.00664741
0.00657274
0.00650157
0.00642444
0.00635064
0.00627358
0.00620205
0.00613107
0.00606469
0.00599711
0.00593877
0.00587825
0.00583117
0.00579594
0.00577244
0.00584267
0.0047744
0.00494854
0.00507008
0.00515166
0.00518877
0.00521415
0.00524894
0.00532166
0.00542116
0.00555565
0.00569844
0.00585645
0.00599661
0.00613573
0.00625357
0.0063673
0.00646063
0.00655282
0.00662998
0.00670918
0.00677567
0.00684117
0.00688845
0.00693539
0.00696049
0.00698326
0.00698311
0.00697627
0.00695904
0.00692591
0.00688914
0.00683342
0.00678015
0.00671576
0.00664553
0.00657281
0.00649883
0.00642035
0.00634542
0.00627105
0.00620104
0.00613054
0.00606459
0.00599691
0.00593791
0.00587921
0.00583135
0.00579731
0.00577046
0.00584093
0.00477444
0.00494852
0.00507014
0.00515166
0.00518888
0.00521415
0.00524886
0.00532156
0.00542103
0.00555607
0.00569877
0.00585626
0.00599618
0.00613559
0.00625359
0.00636746
0.006461
0.00655272
0.00662994
0.00670899
0.00677561
0.00684114
0.00688922
0.00693571
0.00696049
0.00698323
0.00698305
0.00697595
0.00695823
0.00692476
0.00688682
0.0068304
0.00677821
0.00671425
0.00664823
0.00657618
0.00650253
0.006426
0.00634919
0.00627032
0.00620037
0.00612998
0.0060644
0.00599651
0.00593805
0.00587771
0.00583219
0.00579939
0.0057712
0.00584046
)
;

boundaryField
{
    inlet
    {
        type            turbulentMixingLengthDissipationRateInlet;
        mixingLength    0.5;
        phi             phi;
        k               k;
        value           nonuniform List<scalar> 
25
(
7.7439e-05
7.7439e-05
7.7439e-05
7.7439e-05
7.7439e-05
8.64044e-05
8.64044e-05
8.64044e-05
8.64044e-05
8.64044e-05
0.000105523
0.000105523
0.000105523
0.000105523
0.000105523
0.000136504
0.000136504
0.000136504
0.000136504
0.000136504
0.000181748
0.000181748
0.000181748
0.000181748
0.000181748
)
;
    }
    outlet
    {
        type            inletOutlet;
        inletValue      uniform 1;
        value           nonuniform List<scalar> 
25
(
0.00362038
0.00361636
0.00361057
0.00360464
0.00361099
0.00237374
0.00236481
0.00237238
0.00236524
0.00237002
0.00215486
0.00212227
0.00213787
0.00212125
0.00213445
0.00309954
0.00309031
0.00308766
0.00309634
0.00309147
0.00583916
0.00584023
0.00584267
0.00584093
0.00584046
)
;
    }
    side1
    {
        type            cyclicAMI;
        value           nonuniform List<scalar> 
250
(
8.72062e-05
8.64459e-05
0.000106172
0.00021682
0.00477442
0.000102499
8.73887e-05
0.000114261
0.000373393
0.00494853
0.000122714
9.08933e-05
0.000131786
0.000513057
0.00507012
0.00013745
9.7562e-05
0.000163128
0.000765711
0.00515164
0.000152959
0.000105726
0.000200777
0.00105242
0.00518886
0.000159423
0.000112345
0.000246827
0.00145533
0.00521421
0.000171779
0.000119716
0.000294723
0.00188227
0.00524888
0.000193853
0.000129874
0.00035295
0.00236271
0.00532149
0.000228529
0.000141771
0.000415947
0.00282958
0.00542096
0.000271916
0.000155013
0.000494328
0.0032787
0.00555594
0.000321923
0.000168279
0.000579558
0.00366319
0.0056991
0.00036806
0.000182351
0.000680025
0.00399005
0.00585641
0.000408095
0.000198077
0.000786191
0.00425014
0.00599603
0.000434796
0.000214988
0.000898014
0.00447896
0.00613544
0.000450321
0.000233179
0.0010088
0.00467915
0.00625355
0.000453783
0.000252322
0.00111762
0.00487102
0.0063674
0.000454606
0.000273167
0.00122138
0.00504325
0.00646111
0.000457826
0.00029569
0.00132142
0.00520245
0.0065528
0.000465608
0.000319492
0.00141453
0.0053318
0.00662988
0.000481014
0.000344614
0.00150484
0.00543862
0.00670898
0.000502681
0.000370131
0.00158726
0.00550609
0.00677544
0.000526963
0.00039604
0.00166671
0.00554993
0.00684109
0.000553595
0.000422571
0.00173622
0.00554773
0.00688904
0.000578501
0.000449111
0.00180075
0.00553087
0.00693619
0.000601569
0.000476616
0.0018549
0.00549002
0.00696034
0.000621039
0.000503128
0.00189967
0.00542514
0.00698304
0.000636398
0.000531335
0.00193726
0.00534792
0.00698294
0.000647091
0.000557075
0.00196142
0.00525442
0.00697601
0.0006556
0.000583653
0.00198061
0.00515826
0.00695846
0.000662595
0.000607985
0.00198761
0.00504972
0.00692646
0.000668112
0.000631239
0.00199059
0.0049464
0.00688748
0.000669909
0.000653111
0.00198639
0.00482939
0.00683085
0.00067082
0.000672655
0.001977
0.00472297
0.00677764
0.000671931
0.00068932
0.00196319
0.0046086
0.00671196
0.000675213
0.000702983
0.00194341
0.00449913
0.0066466
0.000688628
0.000716066
0.00192027
0.0043919
0.00657412
0.000754988
0.000737675
0.00189687
0.00428884
0.00650048
0.00115132
0.000785286
0.00186461
0.00418746
0.00642399
0.0018128
0.000886267
0.00184277
0.00408657
0.00634837
0.00237253
0.00107646
0.00183335
0.00399191
0.00626964
0.00277642
0.00133184
0.00183945
0.00389969
0.00619977
0.00303045
0.00152114
0.00185586
0.00381243
0.00612949
0.00327117
0.00172497
0.00187585
0.0037252
0.00606421
0.00330896
0.00189413
0.001907
0.00364465
0.00599643
0.00343085
0.00202886
0.00195485
0.00356667
0.00593777
0.00351481
0.00215461
0.0020152
0.00349893
0.00587787
0.00349964
0.00219502
0.00205844
0.00343684
0.00583103
0.00359831
0.00221721
0.0020901
0.00337638
0.00579761
0.00363015
0.00227524
0.00209834
0.00330683
0.00576913
0.00361569
0.00237188
0.00214465
0.00309551
0.00583981
)
;
    }
    side2
    {
        type            cyclicAMI;
        value           nonuniform List<scalar> 
250
(
8.72062e-05
8.64459e-05
0.000106172
0.000216825
0.00477442
0.000102499
8.73887e-05
0.000114261
0.000373399
0.00494853
0.000122714
9.08933e-05
0.000131786
0.000513062
0.00507013
0.00013745
9.75621e-05
0.000163128
0.000765716
0.00515164
0.000152959
0.000105726
0.000200778
0.00105242
0.00518887
0.000159423
0.000112345
0.000246828
0.00145533
0.00521422
0.000171779
0.000119716
0.000294725
0.00188228
0.00524888
0.000193853
0.000129874
0.000352952
0.00236272
0.00532149
0.000228529
0.000141771
0.000415949
0.00282959
0.00542096
0.000271916
0.000155013
0.000494331
0.0032787
0.00555594
0.000321923
0.000168279
0.000579561
0.00366319
0.00569911
0.00036806
0.000182351
0.000680028
0.00399006
0.00585641
0.000408095
0.000198077
0.000786194
0.00425015
0.00599603
0.000434796
0.000214989
0.000898017
0.00447897
0.00613544
0.000450321
0.00023318
0.0010088
0.00467916
0.00625355
0.000453783
0.000252322
0.00111762
0.00487102
0.0063674
0.000454606
0.000273168
0.00122139
0.00504326
0.00646111
0.000457826
0.00029569
0.00132142
0.00520245
0.0065528
0.000465608
0.000319492
0.00141453
0.00533181
0.00662988
0.000481014
0.000344615
0.00150485
0.00543862
0.00670898
0.000502681
0.000370132
0.00158727
0.00550609
0.00677544
0.000526963
0.00039604
0.00166671
0.00554993
0.00684109
0.000553595
0.000422572
0.00173623
0.00554774
0.00688904
0.000578501
0.000449112
0.00180076
0.00553087
0.00693619
0.000601569
0.000476617
0.00185491
0.00549003
0.00696034
0.000621039
0.000503129
0.00189967
0.00542515
0.00698304
0.000636398
0.000531336
0.00193726
0.00534793
0.00698294
0.000647091
0.000557076
0.00196143
0.00525442
0.00697601
0.0006556
0.000583654
0.00198061
0.00515826
0.00695846
0.000662595
0.000607986
0.00198761
0.00504972
0.00692646
0.000668112
0.00063124
0.00199059
0.0049464
0.00688749
0.000669909
0.000653111
0.0019864
0.0048294
0.00683085
0.00067082
0.000672656
0.001977
0.00472297
0.00677764
0.000671931
0.000689321
0.0019632
0.0046086
0.00671196
0.000675213
0.000702984
0.00194341
0.00449913
0.00664661
0.000688628
0.000716066
0.00192027
0.00439191
0.00657412
0.000754988
0.000737676
0.00189687
0.00428884
0.00650048
0.00115132
0.000785287
0.00186461
0.00418746
0.00642399
0.0018128
0.000886267
0.00184277
0.00408657
0.00634837
0.00237253
0.00107646
0.00183335
0.00399192
0.00626965
0.00277642
0.00133184
0.00183945
0.0038997
0.00619977
0.00303045
0.00152114
0.00185586
0.00381243
0.00612949
0.00327117
0.00172497
0.00187585
0.00372521
0.00606422
0.00330896
0.00189413
0.001907
0.00364465
0.00599643
0.00343085
0.00202886
0.00195486
0.00356668
0.00593777
0.00351481
0.00215461
0.0020152
0.00349894
0.00587787
0.00349964
0.00219502
0.00205844
0.00343684
0.00583104
0.00359831
0.00221721
0.0020901
0.00337638
0.00579761
0.00363015
0.00227524
0.00209834
0.00330683
0.00576913
0.00361569
0.00237188
0.00214465
0.00309551
0.00583981
)
;
    }
    walls
    {
        lowReCorrection 0;
        blending        stepwise;
        n               2;
        type            epsilonWallFunction;
        value           nonuniform List<scalar> 
250
(
0.0047744
0.00477441
0.00477444
0.0047744
0.00477444
0.00494854
0.00494854
0.00494856
0.00494854
0.00494852
0.00507012
0.00507015
0.0050701
0.00507008
0.00507014
0.00515162
0.00515163
0.00515165
0.00515166
0.00515166
0.00518885
0.00518878
0.00518875
0.00518877
0.00518888
0.00521428
0.00521431
0.00521423
0.00521415
0.00521415
0.0052489
0.00524903
0.00524901
0.00524894
0.00524886
0.00532143
0.00532141
0.00532168
0.00532166
0.00532156
0.00542089
0.00542081
0.00542077
0.00542116
0.00542103
0.00555582
0.00555555
0.0055555
0.00555565
0.00555607
0.00569944
0.00569903
0.00569858
0.00569844
0.00569877
0.00585657
0.00585727
0.00585699
0.00585645
0.00585626
0.00599588
0.0059962
0.00599678
0.00599661
0.00599618
0.0061353
0.00613511
0.00613552
0.00613573
0.00613559
0.00625351
0.00625333
0.0062533
0.00625357
0.00625359
0.00636735
0.00636722
0.00636711
0.0063673
0.00636746
0.00646122
0.006461
0.00646075
0.00646063
0.006461
0.00655289
0.00655316
0.00655306
0.00655282
0.00655272
0.00662983
0.00662984
0.00662991
0.00662998
0.00662994
0.00670896
0.00670896
0.00670916
0.00670918
0.00670899
0.00677527
0.00677507
0.00677542
0.00677567
0.00677561
0.00684104
0.00684073
0.0068403
0.00684117
0.00684114
0.00688886
0.00688872
0.00688835
0.00688845
0.00688922
0.00693668
0.00693619
0.00693548
0.00693539
0.00693571
0.0069602
0.00696173
0.00696117
0.00696049
0.00696049
0.00698285
0.00698315
0.00698362
0.00698326
0.00698323
0.00698282
0.00698265
0.00698314
0.00698311
0.00698305
0.00697608
0.00697541
0.00697569
0.00697627
0.00697595
0.0069587
0.00695804
0.00695687
0.00695904
0.00695823
0.00692816
0.00692662
0.00692445
0.00692591
0.00692476
0.00688815
0.0068904
0.00688743
0.00688914
0.00688682
0.0068313
0.00683445
0.00682916
0.00683342
0.0068304
0.00677707
0.00678166
0.00678163
0.00678015
0.00677821
0.00670967
0.0067143
0.00670842
0.00671576
0.00671425
0.00664498
0.00664885
0.00664741
0.00664553
0.00664823
0.00657206
0.0065762
0.00657274
0.00657281
0.00657618
0.00649842
0.00650307
0.00650157
0.00649883
0.00650253
0.00642198
0.00642499
0.00642444
0.00642035
0.006426
0.00634756
0.0063513
0.00635064
0.00634542
0.00634919
0.00626898
0.00627215
0.00627358
0.00627105
0.00627032
0.00619917
0.00620101
0.00620205
0.00620104
0.00620037
0.00612901
0.0061304
0.00613107
0.00613054
0.00612998
0.00606403
0.00606441
0.00606469
0.00606459
0.0060644
0.00599636
0.00599724
0.00599711
0.00599691
0.00599651
0.0059375
0.00593794
0.00593877
0.00593791
0.00593805
0.00587803
0.0058779
0.00587825
0.00587921
0.00587771
0.00582989
0.00583153
0.00583117
0.00583135
0.00583219
0.00579584
0.00579718
0.00579594
0.00579731
0.00579939
0.00576707
0.0057698
0.00577244
0.00577046
0.0057712
0.00583916
0.00584023
0.00584267
0.00584093
0.00584046
)
;
    }
}


// ************************************************************************* //
