/*--------------------------------*- C++ -*----------------------------------*\
| =========                 |                                                 |
| \\      /  F ield         | OpenFOAM: The Open Source CFD Toolbox           |
|  \\    /   O peration     | Version:  v2006                                 |
|   \\  /    A nd           | Website:  www.openfoam.com                      |
|    \\/     M anipulation  |                                                 |
\*---------------------------------------------------------------------------*/
FoamFile
{
    version     2.0;
    format      ascii;
    class       volScalarField;
    location    "200";
    object      k;
}
// * * * * * * * * * * * * * * * * * * * * * * * * * * * * * * * * * * * * * //

dimensions      [0 2 -2 0 0 0 0];


internalField   nonuniform List<scalar> 
1250
(
0.00389781
0.00403153
0.00414433
0.00422369
0.00425888
0.00426336
0.00428664
0.00435041
0.00448365
0.00464727
0.00480719
0.00491538
0.00497954
0.00497193
0.00494287
0.00488163
0.00481084
0.00474452
0.00469812
0.00466556
0.00464905
0.00463578
0.00462616
0.00461202
0.00458877
0.00455742
0.00451572
0.00446446
0.00441057
0.00435289
0.00431011
0.00424534
0.00416483
0.00406996
0.00403095
0.0040882
0.00466707
0.00727695
0.00981047
0.0114638
0.0132493
0.0138169
0.0142102
0.0148244
0.0152555
0.0158097
0.0158452
0.0162258
0.016319
0.016296
0.00389781
0.00403154
0.00414432
0.00422369
0.00425888
0.00426335
0.00428664
0.0043504
0.00448365
0.00464725
0.00480717
0.00491538
0.00497955
0.00497191
0.00494288
0.00488164
0.00481082
0.00474451
0.00469813
0.00466554
0.00464906
0.00463579
0.00462613
0.00461235
0.00458872
0.00455727
0.00451575
0.00446423
0.00441029
0.00435309
0.00431028
0.00424573
0.00416442
0.00407102
0.00402627
0.00408966
0.00459407
0.00725396
0.00981365
0.0114735
0.0132549
0.013816
0.0142077
0.0148165
0.0152444
0.0157891
0.0158273
0.0162022
0.0162984
0.0162733
0.00389781
0.00403154
0.00414433
0.00422368
0.00425888
0.00426336
0.00428664
0.00435041
0.00448365
0.00464726
0.00480719
0.00491539
0.00497954
0.00497192
0.00494287
0.00488163
0.00481085
0.00474452
0.00469811
0.00466554
0.00464901
0.00463593
0.00462611
0.00461235
0.00458892
0.00455777
0.00451568
0.00446449
0.00441045
0.00435315
0.0043103
0.00424549
0.00416525
0.00407109
0.00402771
0.00409112
0.00459187
0.00720245
0.0097507
0.0114829
0.0132373
0.0138
0.0141919
0.0147994
0.0152254
0.0157651
0.015795
0.0161737
0.0162391
0.0162535
0.00389781
0.00403154
0.00414433
0.00422368
0.00425887
0.00426335
0.00428665
0.00435041
0.00448364
0.0046473
0.00480719
0.00491538
0.00497953
0.0049719
0.00494287
0.00488161
0.00481089
0.00474452
0.00469812
0.00466554
0.00464891
0.00463578
0.00462598
0.00461213
0.00458856
0.0045574
0.00451539
0.00446413
0.0044102
0.00435265
0.00430987
0.00424492
0.00416438
0.00407115
0.004029
0.00407975
0.00458602
0.00714791
0.00967112
0.011431
0.0131938
0.0137678
0.0141616
0.014772
0.0151991
0.0157515
0.0157691
0.016153
0.0162413
0.0162316
0.00389781
0.00403154
0.00414433
0.00422369
0.00425888
0.00426335
0.00428665
0.00435041
0.00448364
0.00464729
0.0048072
0.00491539
0.00497954
0.00497191
0.00494287
0.0048816
0.00481086
0.00474453
0.00469813
0.0046656
0.00464893
0.00463591
0.00462606
0.00461227
0.00458881
0.00455772
0.00451563
0.00446431
0.00441048
0.00435282
0.00430986
0.00424492
0.00416498
0.00407067
0.00403135
0.00408895
0.00470034
0.00720516
0.0097067
0.0114241
0.0131952
0.0137733
0.0141709
0.0147866
0.015218
0.0157858
0.0158004
0.0161915
0.0162476
0.0162711
0.00409845
0.00409938
0.00410865
0.00413127
0.00415521
0.00417205
0.00418486
0.00420864
0.00423331
0.0042599
0.00428127
0.00430135
0.00432407
0.00434401
0.00436563
0.00438473
0.00440539
0.00442548
0.00444462
0.00446376
0.00447736
0.00449161
0.00449938
0.00450934
0.00451353
0.00451821
0.00451776
0.00451489
0.00451002
0.00449851
0.00448773
0.00446826
0.00444437
0.00441295
0.00436947
0.00433549
0.00435121
0.00458746
0.00525673
0.00597295
0.00695012
0.00792369
0.00855204
0.00930319
0.00977613
0.0102959
0.0107492
0.0108098
0.0111212
0.0114179
0.00409845
0.00409939
0.00410865
0.00413128
0.00415531
0.00417207
0.00418485
0.00420871
0.00423327
0.00425993
0.00428127
0.00430136
0.00432407
0.004344
0.00436567
0.00438476
0.00440535
0.00442549
0.00444458
0.00446374
0.00447736
0.00449157
0.00449933
0.00450939
0.00451366
0.00451807
0.00451761
0.00451513
0.00450989
0.00449854
0.00448798
0.00446831
0.00444437
0.00441294
0.00436848
0.00433682
0.00435312
0.0045533
0.005298
0.0060417
0.00703795
0.00785677
0.00860522
0.00924946
0.00970798
0.0103103
0.0107682
0.0108402
0.0111331
0.0114505
0.00409845
0.00409939
0.00410865
0.00413128
0.00415534
0.0041721
0.00418483
0.00420874
0.00423325
0.00426005
0.00428124
0.00430124
0.00432403
0.00434398
0.00436568
0.00438475
0.00440528
0.00442553
0.00444442
0.00446373
0.00447732
0.00449161
0.00449936
0.00450934
0.00451367
0.00451799
0.00451752
0.004515
0.00450973
0.00449832
0.00448786
0.00446829
0.00444464
0.00441037
0.00436537
0.00435329
0.00440926
0.00461098
0.00528117
0.00599717
0.0069735
0.00791605
0.00866911
0.00931864
0.00977286
0.0102743
0.0107522
0.0108308
0.0111245
0.0114291
0.00409845
0.00409938
0.00410865
0.00413127
0.00415521
0.00417206
0.00418484
0.00420866
0.00423326
0.00426002
0.00428132
0.00430117
0.00432401
0.00434399
0.00436562
0.00438473
0.00440529
0.00442555
0.00444441
0.00446373
0.00447732
0.00449157
0.00449929
0.00450937
0.00451356
0.00451816
0.00451771
0.00451486
0.00450987
0.00449845
0.00448768
0.00446807
0.00444485
0.00441005
0.00437414
0.00434206
0.0043659
0.00456629
0.00534102
0.00599111
0.00705519
0.00786141
0.00861707
0.00927636
0.00972492
0.0103388
0.0107243
0.0108411
0.0111395
0.011453
0.00409845
0.00409939
0.00410865
0.00413129
0.00415533
0.0041721
0.00418486
0.00420869
0.00423325
0.00425995
0.0042813
0.00430122
0.00432403
0.00434399
0.00436566
0.00438477
0.00440538
0.00442555
0.00444446
0.00446375
0.00447734
0.0044915
0.00449934
0.00450936
0.00451361
0.00451798
0.00451749
0.004515
0.00450963
0.00449849
0.00448777
0.00446764
0.00444393
0.00441143
0.0043687
0.00435091
0.00440079
0.00459116
0.00535487
0.00607106
0.00703158
0.00785888
0.00866793
0.00927946
0.00972955
0.0102927
0.0107258
0.0108582
0.0111555
0.0114507
0.00468224
0.00471584
0.00479791
0.00494577
0.00508573
0.00521233
0.00530541
0.00541475
0.005523
0.00567042
0.0058268
0.00601266
0.00619899
0.00638464
0.00655914
0.00671957
0.00686428
0.00700048
0.00711813
0.00723369
0.00732768
0.00742101
0.0074885
0.00755557
0.00759673
0.00762345
0.00763777
0.00763219
0.00761221
0.00757733
0.00752378
0.00746352
0.00738062
0.00731479
0.00721792
0.0071257
0.00701631
0.00691253
0.00684363
0.0068448
0.00691774
0.00705722
0.00723391
0.00738017
0.00771807
0.00790586
0.00829576
0.00863462
0.00874368
0.00900655
0.00468225
0.00471583
0.00479788
0.00494577
0.0050854
0.0052123
0.00530522
0.0054148
0.00552294
0.00567054
0.00582682
0.00601203
0.00619888
0.0063846
0.00655916
0.00671952
0.00686416
0.00700039
0.00711807
0.00723368
0.0073276
0.0074209
0.00748902
0.00755543
0.00759787
0.00762406
0.00763667
0.0076308
0.00761369
0.00757608
0.00752549
0.00746197
0.00738262
0.00731432
0.00721888
0.00712848
0.00701153
0.00691734
0.00690435
0.00689778
0.00699788
0.00714668
0.00725549
0.00747064
0.0075881
0.00794965
0.00822159
0.00859999
0.00873065
0.00899778
0.00468225
0.00471584
0.00479768
0.00494559
0.00508535
0.00521234
0.00530523
0.00541489
0.00552307
0.00567082
0.00582694
0.00601248
0.00619885
0.00638469
0.0065592
0.00671955
0.00686397
0.00700035
0.00711799
0.00723363
0.00732775
0.00742101
0.00748866
0.0075553
0.00759739
0.00762363
0.00763779
0.00763179
0.00761271
0.00757732
0.00752431
0.00746372
0.00738119
0.00731387
0.00721785
0.00712499
0.00701519
0.00690931
0.00686313
0.00688171
0.00691728
0.00713922
0.00733908
0.00758809
0.00763487
0.0078597
0.00825019
0.00862752
0.00872943
0.00903667
0.00468225
0.00471584
0.00479797
0.00494561
0.00508591
0.00521249
0.00530527
0.00541484
0.00552294
0.00567047
0.00582685
0.00601214
0.00619883
0.00638468
0.00655923
0.00671959
0.00686437
0.0070004
0.00711802
0.00723356
0.00732784
0.00742092
0.00748827
0.007555
0.00759769
0.00762419
0.00763666
0.00763159
0.00761174
0.00757571
0.00752232
0.00746136
0.00738185
0.00731462
0.00721897
0.00712694
0.00701901
0.00690898
0.00689894
0.00688649
0.00693015
0.00706823
0.00723442
0.00743935
0.00763372
0.00786649
0.00832453
0.00859115
0.00875516
0.00901593
0.00468225
0.00471584
0.00479772
0.00494564
0.00508532
0.00521243
0.00530524
0.00541467
0.00552307
0.00567023
0.00582678
0.00601247
0.00619896
0.00638455
0.00655911
0.00671945
0.00686404
0.00700053
0.00711813
0.00723367
0.0073277
0.00742094
0.00748882
0.00755504
0.00759733
0.00762392
0.00763782
0.00763063
0.00761333
0.00757629
0.00752412
0.00746324
0.00738088
0.00731434
0.00721835
0.00712636
0.00702311
0.00689504
0.00688839
0.00691556
0.00702598
0.00718553
0.00736222
0.00755119
0.00774452
0.00789388
0.00827617
0.00861881
0.00877383
0.00905296
0.00559213
0.00576831
0.00613768
0.00682814
0.00761379
0.00863253
0.0096398
0.010702
0.0116538
0.0124961
0.0131582
0.0136579
0.0139939
0.014257
0.0144563
0.0146521
0.0148208
0.0149848
0.0151128
0.0152096
0.0152553
0.0152409
0.0151952
0.0151028
0.0149482
0.0147712
0.0145711
0.0143405
0.0141014
0.0138399
0.0135991
0.0133254
0.0130789
0.0128122
0.0125669
0.0123173
0.0120766
0.0118302
0.0116102
0.0113832
0.0111991
0.0109986
0.010838
0.0106562
0.0105187
0.0103675
0.0102763
0.0101706
0.010065
0.0097663
0.00559213
0.00576828
0.00613774
0.00682782
0.00761487
0.00863269
0.00963953
0.010702
0.011654
0.0124964
0.0131574
0.0136579
0.0139941
0.0142571
0.0144564
0.014652
0.0148209
0.0149849
0.0151127
0.0152092
0.0152563
0.0152423
0.0151973
0.0151045
0.0149575
0.0147684
0.0145689
0.0143408
0.0140987
0.0138415
0.0135974
0.0133227
0.013075
0.0128095
0.0125648
0.0123187
0.0120738
0.0118275
0.0116089
0.0113826
0.0112024
0.0110024
0.0108376
0.010657
0.0105198
0.0103625
0.0102845
0.0101676
0.0100738
0.00978591
0.00559213
0.00576831
0.00613746
0.00682798
0.00761418
0.00863273
0.00963954
0.010702
0.011654
0.0124973
0.0131581
0.0136571
0.0139933
0.0142574
0.0144564
0.0146522
0.0148208
0.0149849
0.0151125
0.0152096
0.0152554
0.0152409
0.0151953
0.0151002
0.0149554
0.0147729
0.0145695
0.0143418
0.0140969
0.0138386
0.0135976
0.0133251
0.0130771
0.0128117
0.0125659
0.012319
0.012076
0.0118293
0.0116076
0.0113838
0.0111987
0.0110024
0.0108407
0.0106583
0.0105213
0.0103647
0.0102802
0.0101785
0.0100596
0.00980733
0.00559214
0.00576833
0.00613776
0.0068279
0.007615
0.00863291
0.00963963
0.0107017
0.0116541
0.0124968
0.0131586
0.0136572
0.0139932
0.0142568
0.0144562
0.0146521
0.0148209
0.0149851
0.0151126
0.0152094
0.0152563
0.0152424
0.0151962
0.0151003
0.0149481
0.0147692
0.0145686
0.0143399
0.0140986
0.0138395
0.0135977
0.0133216
0.0130774
0.01281
0.0125625
0.0123156
0.0120763
0.0118278
0.011609
0.0113851
0.0112003
0.0110005
0.0108402
0.0106569
0.0105191
0.0103723
0.0102776
0.0101678
0.0100806
0.00978009
0.00559213
0.00576831
0.00613756
0.00682769
0.00761471
0.00863299
0.00963966
0.0107018
0.0116534
0.012497
0.0131589
0.0136576
0.0139934
0.0142571
0.0144563
0.0146522
0.0148208
0.014985
0.0151128
0.0152086
0.0152561
0.0152423
0.0151976
0.0151054
0.014954
0.0147726
0.0145678
0.0143377
0.0140962
0.0138392
0.0135982
0.0133213
0.0130752
0.0128066
0.0125659
0.0123137
0.0120731
0.0118263
0.0116088
0.0113847
0.0112065
0.0110084
0.0108443
0.0106575
0.0105241
0.010368
0.0102734
0.0101675
0.0100569
0.00980189
0.00684664
0.00701223
0.00712651
0.00720276
0.00723736
0.00726101
0.00729313
0.00736015
0.00745164
0.00757467
0.0077047
0.00784563
0.00796957
0.00809263
0.00819626
0.00829547
0.00837682
0.00845585
0.00852191
0.00858955
0.00864596
0.00870189
0.00874231
0.00878287
0.00880302
0.00882231
0.00882237
0.00881685
0.00880307
0.00877635
0.00874409
0.00869626
0.0086501
0.00859353
0.00853782
0.00847582
0.00841246
0.00834606
0.00828127
0.00821221
0.00814968
0.00808708
0.00802931
0.00796897
0.00791554
0.00786062
0.00781519
0.00778339
0.00775659
0.00781881
0.00684664
0.00701223
0.00712655
0.00720278
0.00723729
0.00726103
0.00729324
0.00736016
0.00745158
0.00757444
0.00770433
0.00784619
0.00796992
0.00809249
0.00819613
0.00829536
0.00837664
0.00845605
0.00852195
0.00858956
0.0086458
0.00870163
0.00874219
0.00878241
0.0088043
0.00882255
0.00882221
0.00881629
0.00880252
0.00877525
0.00874559
0.00869896
0.00865385
0.00859729
0.0085411
0.00847915
0.00841651
0.00834872
0.00828472
0.00821465
0.00815103
0.00808813
0.00802962
0.00796932
0.00791584
0.0078615
0.00781541
0.0077812
0.00775843
0.0078208
0.00684667
0.00701223
0.00712652
0.0072028
0.00723727
0.00726096
0.00729322
0.00736044
0.00745154
0.00757438
0.00770394
0.00784591
0.00797038
0.00809288
0.00819612
0.00829527
0.00837643
0.00845596
0.00852201
0.0085897
0.00864614
0.00870131
0.00874191
0.00878182
0.00880385
0.00882297
0.00882287
0.00881665
0.00880156
0.00877344
0.00874364
0.00869436
0.00865411
0.00859265
0.00854002
0.00847637
0.00841532
0.00834838
0.00828407
0.00821632
0.00815247
0.0080891
0.00803001
0.0079695
0.00791582
0.00786165
0.0078168
0.00778345
0.00775777
0.00782034
0.00684664
0.00701222
0.00712647
0.00720281
0.00723729
0.00726089
0.00729315
0.00736038
0.0074519
0.00757456
0.00770382
0.00784542
0.0079702
0.00809302
0.00819635
0.00829547
0.00837633
0.00845575
0.00852204
0.00858973
0.00864628
0.00870201
0.00874202
0.00878174
0.00880314
0.00882261
0.00882261
0.00881698
0.00880339
0.00877461
0.00874474
0.00869794
0.00865284
0.00859841
0.00853877
0.0084758
0.00841271
0.00834482
0.00827921
0.00821394
0.00815155
0.00808866
0.00802997
0.00796933
0.00791605
0.00786157
0.0078168
0.00778414
0.00776048
0.00782082
0.00684668
0.00701222
0.00712653
0.00720279
0.00723739
0.0072609
0.00729308
0.00736026
0.00745177
0.0075749
0.00770417
0.00784528
0.00796981
0.00809288
0.00819634
0.00829558
0.00837663
0.00845568
0.008522
0.00858958
0.00864623
0.008702
0.00874262
0.00878209
0.00880329
0.0088226
0.00882253
0.00881668
0.00880265
0.00877369
0.00874296
0.00869562
0.00865114
0.00859717
0.00854075
0.00847902
0.00841588
0.00834936
0.0082833
0.00821396
0.00815112
0.00808826
0.00802984
0.00796919
0.00791529
0.00786178
0.00781552
0.00778332
0.0077578
0.00781999
)
;

boundaryField
{
    inlet
    {
        type            turbulentIntensityKineticEnergyInlet;
        intensity       0.05;
        value           nonuniform List<scalar> 
25
(
0.00381504
0.00381504
0.00381504
0.00381504
0.00381504
0.00410408
0.00410408
0.00410408
0.00410408
0.00410408
0.00468911
0.00468911
0.00468911
0.00468911
0.00468911
0.005567
0.005567
0.005567
0.005567
0.005567
0.0067376
0.0067376
0.00673761
0.00673761
0.00673761
)
;
    }
    outlet
    {
        type            inletOutlet;
        inletValue      uniform 1;
        value           nonuniform List<scalar> 
25
(
0.016296
0.0162733
0.0162535
0.0162316
0.0162711
0.0114179
0.0114505
0.0114291
0.011453
0.0114507
0.00900655
0.00899778
0.00903667
0.00901593
0.00905296
0.0097663
0.00978591
0.00980733
0.00978009
0.00980189
0.00781881
0.0078208
0.00782034
0.00782082
0.00781999
)
;
    }
    side1
    {
        type            cyclicAMI;
        value           nonuniform List<scalar> 
250
(
0.00389781
0.00409845
0.00468224
0.00559213
0.00684665
0.00403154
0.00409938
0.00471584
0.00576831
0.00701223
0.00414433
0.00410865
0.00479781
0.00613762
0.00712652
0.00422369
0.00413128
0.0049457
0.00682791
0.00720278
0.00425888
0.00415527
0.00508552
0.00761425
0.00723738
0.00426335
0.00417207
0.00521238
0.00863276
0.00726096
0.00428664
0.00418486
0.00530532
0.00963972
0.00729311
0.00435041
0.00420867
0.00541471
0.0107019
0.00736021
0.00448364
0.00423328
0.00552304
0.0116536
0.00745171
0.00464728
0.00425992
0.00567032
0.0124965
0.00757479
0.00480719
0.00428129
0.00582679
0.0131585
0.00770444
0.00491539
0.00430129
0.00601257
0.0136577
0.00784546
0.00497954
0.00432405
0.00619897
0.0139937
0.0079697
0.00497192
0.004344
0.00638459
0.014257
0.00809276
0.00494287
0.00436565
0.00655912
0.0144563
0.00819631
0.00488162
0.00438475
0.00671951
0.0146522
0.00829553
0.00481085
0.00440538
0.00686416
0.0148208
0.00837673
0.00474453
0.00442551
0.0070005
0.0149849
0.00845577
0.00469813
0.00444454
0.00711813
0.0151128
0.00852197
0.00466558
0.00446375
0.00723368
0.0152091
0.00858957
0.00464899
0.00447735
0.00732769
0.0152557
0.0086461
0.00463584
0.00449155
0.00742097
0.0152416
0.00870195
0.00462611
0.00449936
0.00748866
0.0151964
0.00874247
0.00461215
0.00450935
0.0075553
0.0151041
0.00878249
0.00458879
0.00451357
0.00759703
0.0149511
0.00880316
0.00455757
0.0045181
0.00762368
0.0147719
0.00882246
0.00451567
0.00451763
0.00763779
0.0145694
0.00882246
0.00446439
0.00451494
0.00763141
0.0143391
0.00881677
0.00441053
0.00450982
0.00761277
0.0140988
0.00880287
0.00435285
0.0044985
0.00757681
0.0138395
0.00877503
0.00430998
0.00448775
0.00752395
0.0135987
0.00874353
0.00424513
0.00446795
0.00746338
0.0133234
0.00869595
0.0041649
0.00444415
0.00738075
0.0130771
0.00865062
0.00407032
0.00441219
0.00731456
0.0128094
0.00859535
0.00403115
0.00436908
0.00721813
0.0125664
0.00853929
0.00408858
0.0043432
0.00712603
0.0123155
0.00847742
0.0046837
0.004376
0.00701971
0.0120748
0.00841417
0.00724106
0.00458931
0.00690378
0.0118282
0.00834771
0.00975858
0.0053058
0.00686601
0.0116095
0.00828229
0.011444
0.006022
0.00688018
0.0113839
0.00821309
0.0132223
0.00699085
0.00697186
0.0112028
0.0081504
0.0137951
0.00789129
0.00712137
0.0110035
0.00808767
0.0141905
0.00860999
0.00729807
0.0108411
0.00802958
0.0148055
0.00929132
0.00746568
0.0106569
0.00796909
0.0152367
0.00975284
0.0077313
0.0105214
0.00791542
0.0157978
0.0102943
0.00789987
0.0103678
0.0078612
0.0158228
0.0107375
0.00828597
0.0102749
0.00781536
0.0162087
0.010834
0.00862671
0.010169
0.00778336
0.0162833
0.0111384
0.00875876
0.010061
0.0077572
0.0162835
0.0114343
0.00902976
0.00978409
0.0078194
)
;
    }
    side2
    {
        type            cyclicAMI;
        value           nonuniform List<scalar> 
250
(
0.00389781
0.00409845
0.00468225
0.00559213
0.00684666
0.00403154
0.00409939
0.00471584
0.00576831
0.00701223
0.00414433
0.00410865
0.00479781
0.00613762
0.00712652
0.00422369
0.00413128
0.0049457
0.00682791
0.00720278
0.00425888
0.00415527
0.00508553
0.00761425
0.00723738
0.00426335
0.00417207
0.00521239
0.00863276
0.00726095
0.00428664
0.00418486
0.00530533
0.00963972
0.00729311
0.00435041
0.00420867
0.00541471
0.0107019
0.00736021
0.00448364
0.00423328
0.00552304
0.0116536
0.00745171
0.00464728
0.00425993
0.00567033
0.0124965
0.00757479
0.00480719
0.00428129
0.0058268
0.0131585
0.00770443
0.00491539
0.00430129
0.00601257
0.0136577
0.00784545
0.00497954
0.00432405
0.00619898
0.0139937
0.00796969
0.00497192
0.004344
0.0063846
0.014257
0.00809276
0.00494287
0.00436565
0.00655913
0.0144563
0.0081963
0.00488162
0.00438475
0.00671951
0.0146522
0.00829553
0.00481085
0.00440538
0.00686417
0.0148208
0.00837673
0.00474453
0.00442551
0.00700051
0.0149849
0.00845577
0.00469813
0.00444454
0.00711814
0.0151128
0.00852196
0.00466558
0.00446376
0.00723368
0.0152091
0.00858957
0.00464899
0.00447735
0.0073277
0.0152557
0.00864609
0.00463584
0.00449155
0.00742098
0.0152416
0.00870195
0.00462611
0.00449936
0.00748866
0.0151964
0.00874246
0.00461215
0.00450935
0.00755531
0.0151041
0.00878248
0.00458879
0.00451357
0.00759704
0.0149511
0.00880316
0.00455757
0.0045181
0.00762369
0.0147719
0.00882245
0.00451567
0.00451763
0.0076378
0.0145694
0.00882245
0.00446439
0.00451495
0.00763142
0.0143391
0.00881676
0.00441053
0.00450983
0.00761277
0.0140988
0.00880286
0.00435285
0.0044985
0.00757682
0.0138395
0.00877502
0.00430998
0.00448775
0.00752395
0.0135986
0.00874353
0.00424513
0.00446795
0.00746338
0.0133234
0.00869594
0.0041649
0.00444415
0.00738075
0.0130771
0.00865062
0.00407032
0.00441219
0.00731457
0.0128094
0.00859535
0.00403115
0.00436908
0.00721814
0.0125664
0.00853929
0.00408858
0.0043432
0.00712603
0.0123155
0.00847742
0.0046837
0.004376
0.00701971
0.0120748
0.00841417
0.00724106
0.00458931
0.00690379
0.0118282
0.00834771
0.00975858
0.0053058
0.00686601
0.0116095
0.00828228
0.011444
0.006022
0.00688019
0.0113839
0.00821308
0.0132223
0.00699085
0.00697186
0.0112028
0.0081504
0.0137951
0.00789129
0.00712138
0.0110035
0.00808767
0.0141905
0.00860999
0.00729807
0.0108411
0.00802957
0.0148055
0.00929132
0.00746568
0.0106569
0.00796908
0.0152367
0.00975284
0.0077313
0.0105214
0.00791541
0.0157978
0.0102943
0.00789987
0.0103678
0.0078612
0.0158228
0.0107375
0.00828597
0.0102749
0.00781535
0.0162087
0.010834
0.00862671
0.010169
0.00778335
0.0162833
0.0111384
0.00875876
0.010061
0.0077572
0.0162835
0.0114343
0.00902976
0.00978409
0.0078194
)
;
    }
    walls
    {
        type            kqRWallFunction;
        value           nonuniform List<scalar> 
250
(
0.00684664
0.00684664
0.00684667
0.00684664
0.00684668
0.00701223
0.00701223
0.00701223
0.00701222
0.00701222
0.00712651
0.00712655
0.00712652
0.00712647
0.00712653
0.00720276
0.00720278
0.0072028
0.00720281
0.00720279
0.00723736
0.00723729
0.00723727
0.00723729
0.00723739
0.00726101
0.00726103
0.00726096
0.00726089
0.0072609
0.00729313
0.00729324
0.00729322
0.00729315
0.00729308
0.00736015
0.00736016
0.00736044
0.00736038
0.00736026
0.00745164
0.00745158
0.00745154
0.0074519
0.00745177
0.00757467
0.00757444
0.00757438
0.00757456
0.0075749
0.0077047
0.00770433
0.00770394
0.00770382
0.00770417
0.00784563
0.00784619
0.00784591
0.00784542
0.00784528
0.00796957
0.00796992
0.00797038
0.0079702
0.00796981
0.00809263
0.00809249
0.00809288
0.00809302
0.00809288
0.00819626
0.00819613
0.00819612
0.00819635
0.00819634
0.00829547
0.00829536
0.00829527
0.00829547
0.00829558
0.00837682
0.00837664
0.00837643
0.00837633
0.00837663
0.00845585
0.00845605
0.00845596
0.00845575
0.00845568
0.00852191
0.00852195
0.00852201
0.00852204
0.008522
0.00858955
0.00858956
0.0085897
0.00858973
0.00858958
0.00864596
0.0086458
0.00864614
0.00864628
0.00864623
0.00870189
0.00870163
0.00870131
0.00870201
0.008702
0.00874231
0.00874219
0.00874191
0.00874202
0.00874262
0.00878287
0.00878241
0.00878182
0.00878174
0.00878209
0.00880302
0.0088043
0.00880385
0.00880314
0.00880329
0.00882231
0.00882255
0.00882297
0.00882261
0.0088226
0.00882237
0.00882221
0.00882287
0.00882261
0.00882253
0.00881685
0.00881629
0.00881665
0.00881698
0.00881668
0.00880307
0.00880252
0.00880156
0.00880339
0.00880265
0.00877635
0.00877525
0.00877344
0.00877461
0.00877369
0.00874409
0.00874559
0.00874364
0.00874474
0.00874296
0.00869626
0.00869896
0.00869436
0.00869794
0.00869562
0.0086501
0.00865385
0.00865411
0.00865284
0.00865114
0.00859353
0.00859729
0.00859265
0.00859841
0.00859717
0.00853782
0.0085411
0.00854002
0.00853877
0.00854075
0.00847582
0.00847915
0.00847637
0.0084758
0.00847902
0.00841246
0.00841651
0.00841532
0.00841271
0.00841588
0.00834606
0.00834872
0.00834838
0.00834482
0.00834936
0.00828127
0.00828472
0.00828407
0.00827921
0.0082833
0.00821221
0.00821465
0.00821632
0.00821394
0.00821396
0.00814968
0.00815103
0.00815247
0.00815155
0.00815112
0.00808708
0.00808813
0.0080891
0.00808866
0.00808826
0.00802931
0.00802962
0.00803001
0.00802997
0.00802984
0.00796897
0.00796932
0.0079695
0.00796933
0.00796919
0.00791554
0.00791584
0.00791582
0.00791605
0.00791529
0.00786062
0.0078615
0.00786165
0.00786157
0.00786178
0.00781519
0.00781541
0.0078168
0.0078168
0.00781552
0.00778339
0.0077812
0.00778345
0.00778414
0.00778332
0.00775659
0.00775843
0.00775777
0.00776048
0.0077578
0.00781881
0.0078208
0.00782034
0.00782082
0.00781999
)
;
    }
}


// ************************************************************************* //
