/*--------------------------------*- C++ -*----------------------------------*\
| =========                 |                                                 |
| \\      /  F ield         | OpenFOAM: The Open Source CFD Toolbox           |
|  \\    /   O peration     | Version:  v2006                                 |
|   \\  /    A nd           | Website:  www.openfoam.com                      |
|    \\/     M anipulation  |                                                 |
\*---------------------------------------------------------------------------*/
FoamFile
{
    version     2.0;
    format      ascii;
    class       volScalarField;
    location    "200";
    object      nut;
}
// * * * * * * * * * * * * * * * * * * * * * * * * * * * * * * * * * * * * * //

dimensions      [0 2 -1 0 0 0 0];


internalField   nonuniform List<scalar> 
1250
(
0.000618481
0.000651322
0.000685261
0.000709913
0.000710433
0.000681734
0.000668505
0.000674044
0.000693776
0.000721913
0.000755537
0.00078586
0.000810708
0.000822143
0.000826186
0.000819397
0.000803427
0.000784892
0.000769333
0.00075825
0.000751803
0.000748893
0.000748293
0.000749447
0.000749894
0.000750721
0.000750262
0.000748873
0.000746795
0.000743971
0.000742833
0.000739033
0.000729138
0.00071807
0.00071719
0.000733497
0.000850905
0.00135913
0.00183711
0.0021512
0.00253356
0.00266273
0.00276987
0.00294743
0.00309753
0.00324122
0.00325281
0.00329663
0.00312334
0.00332535
0.000618482
0.000651325
0.000685259
0.000709909
0.000710427
0.000681733
0.000668503
0.00067404
0.000693769
0.000721914
0.000755536
0.000785856
0.0008107
0.000822131
0.000826188
0.000819391
0.000803424
0.000784876
0.00076935
0.000758304
0.000751837
0.000748955
0.000748349
0.00074961
0.000749998
0.000750828
0.000750336
0.000748897
0.000746846
0.000744117
0.000743069
0.000739163
0.000729171
0.000718479
0.000715813
0.000733468
0.000835872
0.00135569
0.00184309
0.00215863
0.00253669
0.00266407
0.00277088
0.00294768
0.00309679
0.00323876
0.00325065
0.00329316
0.00312244
0.00332394
0.000618479
0.000651323
0.000685267
0.000709904
0.00071044
0.000681735
0.000668498
0.00067404
0.000693769
0.000721909
0.000755541
0.000785862
0.000810697
0.000822123
0.000826179
0.000819381
0.000803432
0.000784872
0.000769335
0.000758323
0.000751855
0.000749054
0.000748417
0.000749726
0.000750164
0.000751128
0.000750528
0.000749181
0.000747013
0.000744289
0.000743373
0.000739169
0.000729561
0.000718479
0.000715939
0.00073427
0.000837634
0.00134401
0.00182996
0.00216578
0.00253605
0.00266412
0.00276975
0.00294784
0.00309662
0.00323794
0.00324806
0.00329113
0.0031139
0.00332516
0.00061848
0.000651324
0.000685265
0.000709899
0.000710441
0.00068174
0.000668506
0.000674037
0.000693766
0.00072191
0.000755536
0.000785864
0.000810698
0.000822121
0.000826181
0.000819368
0.000803442
0.000784887
0.000769345
0.000758334
0.000751863
0.000749054
0.000748438
0.000749746
0.000750171
0.000751129
0.000750571
0.000749198
0.000747039
0.000744253
0.00074328
0.000739076
0.000729499
0.000718549
0.000716231
0.000731782
0.000835874
0.00133037
0.00181063
0.00215385
0.0025273
0.0026591
0.0027647
0.00294357
0.0030927
0.00323659
0.00324436
0.00328892
0.00311413
0.00331989
0.000618479
0.000651323
0.000685271
0.000709907
0.000710436
0.000681733
0.000668507
0.000674042
0.000693768
0.000721909
0.000755538
0.000785866
0.000810704
0.000822134
0.000826181
0.000819376
0.000803432
0.000784898
0.000769338
0.000758303
0.000751837
0.000749016
0.000748388
0.000749675
0.000750112
0.000751058
0.000750518
0.000749102
0.000746979
0.000744188
0.000743079
0.000739052
0.000729549
0.000718207
0.000717066
0.000734093
0.000858293
0.00134305
0.00181544
0.00214565
0.00252524
0.00265789
0.00276466
0.00294392
0.00309405
0.00324087
0.0032478
0.00329384
0.00311075
0.00332313
0.000662289
0.000629338
0.00062805
0.000649288
0.000656505
0.000656281
0.000664785
0.000669139
0.000675664
0.000678803
0.000672694
0.000662287
0.000650526
0.000640632
0.000635474
0.000635752
0.000641677
0.000651223
0.000662539
0.000675514
0.000689011
0.000704669
0.000718321
0.000730515
0.000738753
0.000746779
0.000753484
0.000760989
0.000768499
0.000775523
0.000782494
0.000787739
0.000791685
0.000793424
0.000792848
0.000793792
0.000799997
0.000847234
0.000977225
0.00110192
0.00128102
0.0014699
0.00159059
0.00174042
0.00184534
0.00195616
0.00208707
0.00212615
0.00254085
0.00278194
0.000662313
0.000629329
0.000628066
0.00064928
0.000656512
0.000656313
0.000664792
0.000669148
0.000675646
0.000678808
0.000672705
0.00066228
0.000650524
0.000640629
0.000635479
0.000635751
0.000641701
0.000651229
0.000662535
0.000675537
0.000689055
0.000704707
0.000718363
0.0007306
0.00073882
0.000746807
0.000753612
0.000761166
0.000768616
0.000775779
0.00078268
0.000787965
0.000791811
0.000793521
0.00079296
0.000794399
0.000800518
0.000837603
0.000981236
0.00111839
0.0012982
0.00145844
0.0016057
0.00173316
0.00183049
0.00195946
0.00209221
0.00213676
0.0025518
0.00280154
0.000662305
0.00062933
0.000628067
0.00064929
0.000656478
0.00065632
0.000664795
0.000669161
0.00067564
0.00067883
0.000672702
0.000662249
0.000650524
0.000640632
0.000635472
0.000635728
0.000641687
0.000651253
0.000662493
0.000675512
0.000689027
0.000704722
0.000718356
0.000730657
0.00073887
0.000746803
0.00075366
0.000761234
0.000768626
0.00077579
0.000782739
0.000787964
0.000791922
0.000792919
0.000792142
0.000797438
0.000811155
0.000851254
0.000980313
0.00110711
0.00128697
0.00147189
0.00161706
0.00174903
0.00184464
0.00195071
0.00209365
0.00213628
0.00255402
0.00279461
0.000662278
0.000629343
0.000628063
0.000649302
0.00065645
0.000656293
0.000664802
0.000669154
0.000675647
0.000678825
0.000672705
0.000662242
0.000650513
0.000640642
0.00063548
0.00063572
0.000641666
0.000651273
0.000662514
0.00067552
0.000689027
0.000704713
0.000718297
0.000730577
0.000738765
0.000746655
0.000753432
0.000760995
0.000768378
0.000775564
0.000782536
0.000787703
0.000791905
0.000792744
0.000793598
0.000795142
0.000803383
0.000842287
0.000992719
0.0011085
0.0013021
0.00145734
0.00160747
0.00173759
0.00183618
0.0019637
0.00208364
0.00213885
0.00255664
0.00280351
0.000662295
0.000629332
0.00062806
0.000649309
0.000656496
0.000656281
0.000664789
0.000669159
0.000675657
0.000678816
0.000672692
0.000662256
0.000650516
0.000640644
0.000635486
0.000635744
0.000641662
0.000651254
0.000662519
0.000675517
0.000688988
0.000704654
0.000718255
0.0007305
0.000738773
0.000746718
0.000753434
0.000761097
0.000768443
0.000775613
0.000782564
0.000787675
0.000791792
0.000793128
0.000792357
0.000796866
0.000810118
0.000845015
0.000994113
0.00112535
0.00130022
0.00145906
0.00161943
0.00174001
0.00183671
0.00195583
0.00208789
0.002143
0.00255991
0.00279773
0.000921881
0.00113359
0.000935851
0.000882058
0.000828504
0.000789177
0.000765597
0.000764459
0.000772631
0.000795583
0.000832964
0.000886277
0.000946133
0.00101058
0.00107854
0.00114772
0.0012137
0.00126847
0.0013025
0.00132184
0.00133289
0.00134682
0.00136175
0.00138239
0.00140253
0.00142326
0.00144327
0.00146052
0.0014747
0.00148536
0.00149167
0.00149413
0.00149239
0.00149217
0.00148633
0.00148103
0.00146888
0.00145946
0.00145465
0.00146908
0.00149514
0.00154022
0.00159132
0.00164675
0.00174368
0.00180578
0.00191412
0.00202332
0.00209802
0.00232075
0.000921915
0.00113355
0.000935875
0.000882103
0.00082842
0.000789129
0.000765568
0.000764486
0.000772616
0.000795566
0.000832957
0.000886185
0.000946126
0.00101059
0.00107854
0.00114767
0.00121365
0.00126852
0.00130251
0.00132181
0.00133288
0.00134673
0.00136173
0.00138228
0.00140271
0.00142332
0.00144297
0.00146003
0.00147489
0.00148497
0.00149205
0.00149369
0.00149285
0.00149207
0.00148679
0.00148178
0.00146785
0.00146084
0.00146907
0.00148254
0.0015172
0.0015669
0.00159679
0.00166614
0.0016999
0.00181088
0.00189755
0.00201833
0.00210188
0.00232844
0.000921865
0.00113358
0.000935778
0.000882077
0.00082845
0.000789121
0.00076556
0.000764512
0.000772661
0.000795596
0.000832953
0.000886263
0.000946134
0.00101062
0.00107856
0.00114768
0.00121353
0.00126848
0.00130253
0.00132181
0.00133296
0.00134682
0.0013617
0.00138226
0.00140269
0.00142329
0.00144331
0.0014605
0.00147495
0.00148538
0.00149198
0.00149438
0.00149259
0.00149198
0.00148649
0.00148117
0.00146871
0.00145858
0.00146055
0.00147715
0.00149565
0.00156732
0.00162481
0.00170421
0.00171915
0.00179445
0.0019022
0.00202064
0.00209762
0.00233718
0.000921906
0.00113356
0.000935863
0.000882048
0.000828566
0.000789161
0.00076555
0.000764498
0.000772655
0.000795567
0.000832934
0.000886191
0.000946115
0.00101062
0.00107859
0.00114773
0.00121361
0.00126842
0.00130255
0.00132181
0.00133298
0.00134688
0.00136168
0.00138224
0.00140275
0.00142343
0.0014431
0.00146041
0.00147465
0.00148506
0.00149141
0.00149368
0.00149284
0.00149208
0.00148694
0.00148168
0.00146965
0.0014584
0.00146875
0.00147982
0.00149905
0.00154676
0.00159212
0.0016561
0.00171602
0.00179425
0.00192587
0.00201278
0.00210767
0.00233505
0.000921869
0.00113356
0.000935785
0.000882066
0.000828458
0.000789167
0.000765536
0.000764455
0.000772663
0.000795565
0.000832944
0.00088624
0.000946123
0.00101058
0.00107856
0.00114773
0.0012136
0.00126841
0.0013025
0.00132181
0.00133286
0.00134684
0.00136176
0.00138223
0.00140264
0.00142336
0.00144325
0.00146009
0.00147503
0.00148525
0.00149198
0.00149419
0.00149255
0.00149226
0.0014866
0.00148117
0.00147067
0.00145441
0.00146615
0.00148449
0.0015209
0.00157604
0.00163071
0.00168969
0.00174132
0.00179247
0.00190616
0.00201559
0.00210775
0.00234472
0.000796121
0.000843003
0.000920743
0.00105007
0.00119843
0.00139306
0.00161062
0.00186254
0.00211645
0.00235228
0.00254992
0.00268276
0.00275299
0.00278375
0.00279439
0.00280822
0.00283054
0.00286602
0.00291008
0.00295774
0.00300472
0.00303976
0.00307358
0.00309257
0.00309587
0.0030911
0.00308035
0.00305953
0.00303719
0.00300728
0.00298412
0.00295103
0.00292629
0.00289322
0.00286896
0.0028386
0.00281248
0.00277953
0.00275706
0.00272696
0.00271184
0.00268706
0.00267642
0.00265638
0.0026488
0.00263738
0.00264004
0.00265099
0.0026455
0.00254574
0.000796123
0.000842992
0.00092074
0.00105004
0.00119866
0.00139303
0.00161054
0.00186258
0.00211655
0.00235237
0.00254964
0.00268271
0.0027531
0.00278383
0.00279443
0.00280819
0.00283047
0.00286605
0.00291011
0.00295765
0.00300498
0.00304015
0.0030741
0.00309297
0.00309812
0.00309027
0.00307991
0.00305979
0.00303635
0.00300748
0.00298382
0.0029499
0.00292479
0.0028924
0.00286792
0.00283864
0.00281136
0.00277845
0.00275659
0.00272653
0.00271301
0.00268838
0.00267577
0.00265622
0.00264845
0.00263535
0.00264351
0.00265161
0.00265076
0.00255485
0.000796123
0.000843014
0.000920624
0.00105005
0.00119855
0.00139301
0.0016105
0.00186257
0.00211656
0.00235265
0.00254976
0.00268248
0.00275289
0.00278396
0.00279446
0.0028083
0.00283042
0.00286599
0.00291007
0.00295779
0.00300483
0.00303986
0.00307355
0.00309178
0.00309766
0.00309158
0.00308004
0.00305993
0.00303618
0.00300705
0.00298384
0.00295097
0.00292566
0.0028934
0.00286882
0.00283898
0.00281248
0.00277945
0.00275649
0.00272711
0.00271204
0.00268868
0.00267723
0.00265747
0.00264953
0.00263566
0.00264198
0.0026559
0.00264625
0.00256365
0.000796124
0.00084301
0.000920732
0.00105
0.00119876
0.0013931
0.00161051
0.00186245
0.00211657
0.00235253
0.00254996
0.00268253
0.00275279
0.00278379
0.00279443
0.00280831
0.0028305
0.00286597
0.00291008
0.00295768
0.00300504
0.00304029
0.00307396
0.00309192
0.00309568
0.00309052
0.00307976
0.00305941
0.00303632
0.00300734
0.00298411
0.00295034
0.00292594
0.00289262
0.00286763
0.00283774
0.00281235
0.00277894
0.00275682
0.00272735
0.00271239
0.00268797
0.00267728
0.00265632
0.00264931
0.00263876
0.00263972
0.00264973
0.00265099
0.00255115
0.000796121
0.000843009
0.000920668
0.00104995
0.00119867
0.00139316
0.00161056
0.00186245
0.00211639
0.00235252
0.0025501
0.00268268
0.00275282
0.00278381
0.00279442
0.00280832
0.00283057
0.00286599
0.00291008
0.00295748
0.0030049
0.00304021
0.00307434
0.00309332
0.00309728
0.00309155
0.00307957
0.00305902
0.00303556
0.00300699
0.00298402
0.0029499
0.00292513
0.00289179
0.00286876
0.00283743
0.00281129
0.00277872
0.00275717
0.00272738
0.00271412
0.0026903
0.00267849
0.0026566
0.00265044
0.00263773
0.00263979
0.00265131
0.00264413
0.00256052
0.000208067
0.000219823
0.000228047
0.000233144
0.000235652
0.000236738
0.000237771
0.000239908
0.000242963
0.000247507
0.000252329
0.000257694
0.000262785
0.000267737
0.000272086
0.000276061
0.000279456
0.000282553
0.000285291
0.000287924
0.000290305
0.000292583
0.000294472
0.00029632
0.000297579
0.000298789
0.000299379
0.000299801
0.000299892
0.000299611
0.000299053
0.000298074
0.000297005
0.000295738
0.000294307
0.000292846
0.000291124
0.000289476
0.000287655
0.000285878
0.000284098
0.000282492
0.000280864
0.000279295
0.00027783
0.000276387
0.000275217
0.000274374
0.000273573
0.000272545
0.000208067
0.000219823
0.000228048
0.000233145
0.000235652
0.000236739
0.000237772
0.000239907
0.000242962
0.000247502
0.000252319
0.000257712
0.000262795
0.000267731
0.000272082
0.000276058
0.000279454
0.00028256
0.000285292
0.000287923
0.0002903
0.000292576
0.000294471
0.000296308
0.000297621
0.000298797
0.000299372
0.000299783
0.000299874
0.00029958
0.000299102
0.000298166
0.000297129
0.000295861
0.000294416
0.000292956
0.000291256
0.000289565
0.000287775
0.000285961
0.000284145
0.000282527
0.000280876
0.000279304
0.000277841
0.000276422
0.000275215
0.000274279
0.000273626
0.000272617
0.000208068
0.000219824
0.000228047
0.000233144
0.000235652
0.000236739
0.000237772
0.000239914
0.000242959
0.0002475
0.000252308
0.000257703
0.00026281
0.000267742
0.000272082
0.000276054
0.000279448
0.00028256
0.000285294
0.000287927
0.000290308
0.000292565
0.000294462
0.000296291
0.000297608
0.000298811
0.000299394
0.000299793
0.000299841
0.000299518
0.000299043
0.000298015
0.000297141
0.000295714
0.00029438
0.000292865
0.000291217
0.000289551
0.00028775
0.000286019
0.000284196
0.000282564
0.000280891
0.000279313
0.000277835
0.000276427
0.000275273
0.000274374
0.000273587
0.000272586
0.000208067
0.000219823
0.000228046
0.000233144
0.000235652
0.000236738
0.000237772
0.000239912
0.000242969
0.000247505
0.000252304
0.000257688
0.000262805
0.000267747
0.000272088
0.00027606
0.000279443
0.000282555
0.000285296
0.000287929
0.000290312
0.000292586
0.000294465
0.000296288
0.000297588
0.000298802
0.000299388
0.000299803
0.000299901
0.000299554
0.000299074
0.000298133
0.000297098
0.000295903
0.000294345
0.000292846
0.000291131
0.000289435
0.000287587
0.000285938
0.000284165
0.000282548
0.00028089
0.000279308
0.000277851
0.00027642
0.000275275
0.000274397
0.000273705
0.00027262
0.000208068
0.000219823
0.000228049
0.000233144
0.000235653
0.000236737
0.00023777
0.00023991
0.000242965
0.000247515
0.000252314
0.000257684
0.000262794
0.000267744
0.000272088
0.000276064
0.00027945
0.000282551
0.000285296
0.000287925
0.000290313
0.000292584
0.000294482
0.000296297
0.000297591
0.000298802
0.000299385
0.000299796
0.000299876
0.000299525
0.000299014
0.000298056
0.00029704
0.000295858
0.000294408
0.000292954
0.000291239
0.000289583
0.000287728
0.000285942
0.000284152
0.000282535
0.000280886
0.000279304
0.00027782
0.000276437
0.00027522
0.000274356
0.000273595
0.000272582
)
;

boundaryField
{
    inlet
    {
        type            calculated;
        value           nonuniform List<scalar> 
25
(
0.000603928
0.000603928
0.000603927
0.000603927
0.000603927
0.000628996
0.000629012
0.000629005
0.000628993
0.00062901
0.00099782
0.000997888
0.00099785
0.000997855
0.000997864
0.000795544
0.000795545
0.000795548
0.000795544
0.000795544
0.000221845
0.000221846
0.000221846
0.000221845
0.000221845
)
;
    }
    outlet
    {
        type            calculated;
        value           nonuniform List<scalar> 
25
(
0.00341724
0.0034113
0.00341151
0.00341002
0.00341507
0.00263535
0.00265285
0.00264501
0.00265453
0.00264878
0.00232512
0.00233294
0.00234125
0.00233995
0.0023494
0.00257213
0.00258136
0.00259029
0.00257772
0.00258704
0.000272905
0.000272977
0.000272946
0.00027298
0.000272943
)
;
    }
    side1
    {
        type            cyclicAMI;
        value           nonuniform List<scalar> 
250
(
0.00061848
0.000662292
0.000921875
0.000796121
0.000208068
0.000651322
0.000629335
0.00113358
0.000843006
0.000219824
0.000685266
0.000628055
0.000935818
0.000920705
0.000228049
0.00070991
0.000649299
0.000882062
0.00105001
0.000233145
0.000710434
0.0006565
0.000828481
0.00119855
0.000235654
0.000681734
0.000656281
0.000789172
0.00139311
0.000236739
0.000668506
0.000664787
0.000765566
0.00161059
0.000237772
0.000674043
0.000669149
0.000764457
0.00186249
0.000239911
0.000693772
0.00067566
0.000772647
0.00211641
0.000242966
0.000721911
0.000678809
0.000795574
0.0023524
0.000247513
0.000755537
0.000672693
0.000832954
0.00255001
0.000252324
0.000785863
0.000662272
0.000886258
0.00268272
0.000257692
0.000810706
0.000650521
0.000946128
0.0027529
0.000262792
0.000822139
0.000640638
0.00101058
0.00278378
0.000267743
0.000826183
0.00063548
0.00107855
0.0027944
0.00027209
0.000819387
0.000635748
0.00114772
0.00280827
0.000276065
0.000803429
0.00064167
0.00121365
0.00283055
0.000279456
0.000784895
0.000651238
0.00126844
0.00286601
0.000282555
0.000769335
0.000662529
0.0013025
0.00291008
0.000285297
0.000758276
0.000675515
0.00132182
0.00295761
0.000287928
0.00075182
0.000688999
0.00133287
0.00300481
0.000290312
0.000748954
0.000704661
0.00134683
0.00303998
0.000292587
0.000748341
0.000718288
0.00136175
0.00307396
0.00029448
0.000749561
0.000730508
0.00138231
0.00309295
0.000296311
0.000750003
0.000738763
0.00140258
0.00309657
0.000297588
0.000750889
0.000746749
0.00142331
0.00309132
0.000298799
0.00075039
0.000753459
0.00144326
0.00307996
0.000299385
0.000748988
0.000761043
0.00146031
0.00305927
0.000299801
0.000746887
0.000768471
0.00147486
0.00303637
0.000299887
0.00074408
0.000775568
0.00148531
0.00300713
0.000299571
0.000742956
0.000782529
0.00149183
0.00298407
0.000299036
0.000739042
0.000787707
0.00149416
0.00295046
0.000298068
0.000729343
0.000791738
0.00149247
0.00292571
0.000297025
0.000718139
0.000793276
0.00149221
0.0028925
0.000295801
0.000717128
0.000792603
0.00148646
0.00286886
0.00029436
0.000733795
0.000795329
0.0014811
0.00283802
0.000292903
0.000854599
0.000805057
0.00146978
0.00281189
0.000291184
0.00135109
0.000846124
0.00145693
0.00277912
0.000289532
0.00182627
0.000985669
0.0014604
0.00275711
0.000287694
0.00214842
0.00111364
0.00147679
0.00272717
0.000285912
0.0025294
0.00129062
0.00150802
0.00271298
0.000284128
0.00266031
0.00146448
0.00155813
0.00268868
0.000282516
0.00276726
0.00160501
0.00161101
0.00267745
0.000280878
0.00294568
0.00174021
0.00166822
0.00265649
0.000279302
0.00309579
0.00184103
0.0017425
0.00264962
0.000277828
0.00324105
0.001956
0.00179912
0.00263755
0.000276414
0.00325031
0.00208748
0.00191014
0.00263991
0.000275221
0.00329523
0.00213458
0.00201945
0.00265115
0.000274368
0.00311704
0.00255038
0.00210289
0.00264481
0.000273586
0.00332424
0.00278983
0.00233273
0.00255313
0.000272566
)
;
    }
    side2
    {
        type            cyclicAMI;
        value           nonuniform List<scalar> 
250
(
0.00061848
0.000662292
0.000921875
0.00079612
0.000208068
0.000651322
0.000629335
0.00113358
0.000843005
0.000219823
0.000685266
0.000628055
0.000935818
0.000920705
0.000228048
0.00070991
0.000649299
0.000882062
0.00105001
0.000233144
0.000710434
0.000656501
0.000828481
0.00119855
0.000235653
0.000681734
0.000656281
0.000789172
0.00139311
0.000236738
0.000668506
0.000664787
0.000765567
0.00161059
0.000237771
0.000674043
0.000669149
0.000764458
0.00186249
0.000239909
0.000693772
0.00067566
0.000772648
0.00211641
0.000242964
0.000721911
0.000678809
0.000795575
0.0023524
0.000247511
0.000755537
0.000672693
0.000832955
0.00255001
0.000252322
0.000785863
0.000662272
0.00088626
0.00268272
0.000257689
0.000810706
0.000650521
0.000946129
0.0027529
0.000262789
0.000822139
0.000640638
0.00101058
0.00278378
0.00026774
0.000826183
0.00063548
0.00107855
0.0027944
0.000272087
0.000819387
0.000635748
0.00114773
0.00280827
0.000276062
0.000803429
0.00064167
0.00121365
0.00283055
0.000279453
0.000784895
0.000651239
0.00126844
0.002866
0.000282552
0.000769335
0.00066253
0.0013025
0.00291008
0.000285294
0.000758276
0.000675516
0.00132183
0.00295761
0.000287925
0.00075182
0.000689
0.00133287
0.00300481
0.000290309
0.000748954
0.000704662
0.00134683
0.00303998
0.000292584
0.000748341
0.000718288
0.00136176
0.00307395
0.000294477
0.000749561
0.000730508
0.00138231
0.00309294
0.000296308
0.000750003
0.000738764
0.00140258
0.00309657
0.000297585
0.000750889
0.000746749
0.00142331
0.00309132
0.000298795
0.00075039
0.000753459
0.00144326
0.00307996
0.000299382
0.000748988
0.000761043
0.00146031
0.00305927
0.000299798
0.000746887
0.000768472
0.00147486
0.00303637
0.000299884
0.00074408
0.000775568
0.00148531
0.00300713
0.000299568
0.000742956
0.000782529
0.00149183
0.00298407
0.000299033
0.000739042
0.000787708
0.00149416
0.00295046
0.000298065
0.000729343
0.000791739
0.00149247
0.00292571
0.000297022
0.000718139
0.000793276
0.00149221
0.0028925
0.000295798
0.000717128
0.000792603
0.00148647
0.00286886
0.000294358
0.000733795
0.000795329
0.0014811
0.00283801
0.0002929
0.000854599
0.000805058
0.00146978
0.00281188
0.000291181
0.00135109
0.000846125
0.00145693
0.00277912
0.000289529
0.00182627
0.000985669
0.0014604
0.00275711
0.000287691
0.00214842
0.00111364
0.00147679
0.00272717
0.00028591
0.0025294
0.00129062
0.00150802
0.00271298
0.000284125
0.00266031
0.00146448
0.00155813
0.00268868
0.000282514
0.00276726
0.00160501
0.00161101
0.00267745
0.000280875
0.00294568
0.00174021
0.00166822
0.00265649
0.0002793
0.00309579
0.00184103
0.0017425
0.00264962
0.000277825
0.00324105
0.001956
0.00179912
0.00263755
0.000276412
0.00325031
0.00208748
0.00191014
0.00263991
0.000275219
0.00329523
0.00213458
0.00201945
0.00265115
0.000274365
0.00311704
0.00255038
0.00210289
0.00264481
0.000273584
0.00332424
0.00278983
0.00233273
0.00255313
0.000272564
)
;
    }
    walls
    {
        type            nutkWallFunction;
        blending        stepwise;
        Cmu             0.09;
        kappa           0.41;
        E               9.8;
        value           nonuniform List<scalar> 
250
(
8.77377e-05
8.77378e-05
8.7738e-05
8.77378e-05
8.7738e-05
8.86968e-05
8.86968e-05
8.86968e-05
8.86967e-05
8.86968e-05
8.93515e-05
8.93517e-05
8.93516e-05
8.93513e-05
8.93516e-05
8.97852e-05
8.97853e-05
8.97854e-05
8.97855e-05
8.97854e-05
8.99811e-05
8.99808e-05
8.99806e-05
8.99808e-05
8.99813e-05
9.01148e-05
9.01149e-05
9.01145e-05
9.01141e-05
9.01141e-05
9.02959e-05
9.02965e-05
9.02964e-05
9.0296e-05
9.02957e-05
9.06725e-05
9.06725e-05
9.06741e-05
9.06738e-05
9.06731e-05
9.11835e-05
9.11832e-05
9.1183e-05
9.11849e-05
9.11842e-05
9.18653e-05
9.1864e-05
9.18637e-05
9.18647e-05
9.18666e-05
9.25794e-05
9.25774e-05
9.25753e-05
9.25747e-05
9.25766e-05
9.3346e-05
9.33491e-05
9.33476e-05
9.3345e-05
9.33442e-05
9.40141e-05
9.40159e-05
9.40184e-05
9.40175e-05
9.40154e-05
9.46718e-05
9.4671e-05
9.46731e-05
9.46739e-05
9.46731e-05
9.52214e-05
9.52207e-05
9.52207e-05
9.52219e-05
9.52219e-05
9.57441e-05
9.57435e-05
9.57431e-05
9.57441e-05
9.57447e-05
9.61701e-05
9.61692e-05
9.61681e-05
9.61676e-05
9.61692e-05
9.65819e-05
9.65829e-05
9.65825e-05
9.65814e-05
9.65811e-05
9.69245e-05
9.69247e-05
9.6925e-05
9.69252e-05
9.6925e-05
9.72737e-05
9.72738e-05
9.72745e-05
9.72747e-05
9.72739e-05
9.75638e-05
9.75631e-05
9.75648e-05
9.75655e-05
9.75653e-05
9.78505e-05
9.78492e-05
9.78476e-05
9.78512e-05
9.78511e-05
9.8057e-05
9.80564e-05
9.8055e-05
9.80556e-05
9.80587e-05
9.82638e-05
9.82615e-05
9.82585e-05
9.82581e-05
9.82599e-05
9.83663e-05
9.83728e-05
9.83705e-05
9.8367e-05
9.83677e-05
9.84643e-05
9.84655e-05
9.84677e-05
9.84659e-05
9.84658e-05
9.84646e-05
9.84638e-05
9.84672e-05
9.84659e-05
9.84654e-05
9.84366e-05
9.84338e-05
9.84356e-05
9.84373e-05
9.84358e-05
9.83665e-05
9.83638e-05
9.83589e-05
9.83682e-05
9.83645e-05
9.82306e-05
9.8225e-05
9.82158e-05
9.82218e-05
9.82171e-05
9.80661e-05
9.80738e-05
9.80639e-05
9.80695e-05
9.80604e-05
9.78217e-05
9.78355e-05
9.7812e-05
9.78304e-05
9.78185e-05
9.75851e-05
9.76044e-05
9.76058e-05
9.75992e-05
9.75905e-05
9.72942e-05
9.73136e-05
9.72897e-05
9.73194e-05
9.7313e-05
9.70068e-05
9.70237e-05
9.70181e-05
9.70117e-05
9.70219e-05
9.66856e-05
9.67029e-05
9.66885e-05
9.66855e-05
9.67023e-05
9.63561e-05
9.63772e-05
9.6371e-05
9.63574e-05
9.63739e-05
9.60093e-05
9.60232e-05
9.60215e-05
9.60028e-05
9.60266e-05
9.56695e-05
9.56877e-05
9.56843e-05
9.56587e-05
9.56802e-05
9.53057e-05
9.53186e-05
9.53274e-05
9.53149e-05
9.5315e-05
9.49748e-05
9.4982e-05
9.49897e-05
9.49848e-05
9.49825e-05
9.46422e-05
9.46479e-05
9.4653e-05
9.46507e-05
9.46485e-05
9.4334e-05
9.43357e-05
9.43378e-05
9.43376e-05
9.43369e-05
9.40109e-05
9.40127e-05
9.40137e-05
9.40128e-05
9.40121e-05
9.37235e-05
9.37252e-05
9.37251e-05
9.37264e-05
9.37223e-05
9.34272e-05
9.34319e-05
9.34328e-05
9.34323e-05
9.34334e-05
9.31811e-05
9.31823e-05
9.31899e-05
9.31899e-05
9.31829e-05
9.30084e-05
9.29965e-05
9.30088e-05
9.30125e-05
9.30081e-05
9.28626e-05
9.28726e-05
9.2869e-05
9.28838e-05
9.28692e-05
9.32007e-05
9.32116e-05
9.3209e-05
9.32117e-05
9.32071e-05
)
;
    }
}


// ************************************************************************* //
