/*--------------------------------*- C++ -*----------------------------------*\
| =========                 |                                                 |
| \\      /  F ield         | OpenFOAM: The Open Source CFD Toolbox           |
|  \\    /   O peration     | Version:  v2006                                 |
|   \\  /    A nd           | Website:  www.openfoam.com                      |
|    \\/     M anipulation  |                                                 |
\*---------------------------------------------------------------------------*/
FoamFile
{
    version     2.0;
    format      ascii;
    class       volScalarField;
    location    "200";
    object      p;
}
// * * * * * * * * * * * * * * * * * * * * * * * * * * * * * * * * * * * * * //

dimensions      [0 2 -2 0 0 0 0];


internalField   nonuniform List<scalar> 
1250
(
-0.161528
-0.162941
-0.165476
-0.1681
-0.172637
-0.174113
-0.172111
-0.167966
-0.163534
-0.159517
-0.154999
-0.150298
-0.146093
-0.142763
-0.140334
-0.138512
-0.136872
-0.135163
-0.133235
-0.131112
-0.128732
-0.126245
-0.123607
-0.120995
-0.11832
-0.115789
-0.113278
-0.111002
-0.108807
-0.106877
-0.105025
-0.103444
-0.101928
-0.100677
-0.0993823
-0.0983205
-0.0974344
-0.0964299
-0.0951046
-0.0940532
-0.0925993
-0.0914318
-0.0899809
-0.0888326
-0.0872502
-0.0856006
-0.0829175
-0.0788244
-0.0673771
-0.0595534
-0.161528
-0.162941
-0.165476
-0.1681
-0.172637
-0.174113
-0.172111
-0.167966
-0.163534
-0.159517
-0.154999
-0.150298
-0.146093
-0.142763
-0.140334
-0.138512
-0.136872
-0.135163
-0.133235
-0.131112
-0.128732
-0.126246
-0.123607
-0.120996
-0.118321
-0.115791
-0.11328
-0.111004
-0.108809
-0.106879
-0.105027
-0.103446
-0.101929
-0.100678
-0.0993832
-0.0983212
-0.0974332
-0.0964316
-0.0951103
-0.0940605
-0.0926069
-0.0914381
-0.0899875
-0.0888399
-0.0872567
-0.0856092
-0.0829272
-0.0788351
-0.0673865
-0.0595597
-0.161528
-0.162941
-0.165476
-0.1681
-0.172637
-0.174113
-0.172111
-0.167966
-0.163534
-0.159516
-0.154999
-0.150298
-0.146093
-0.142763
-0.140334
-0.138512
-0.136872
-0.135163
-0.133235
-0.131112
-0.128733
-0.126247
-0.123609
-0.120998
-0.118323
-0.115793
-0.113283
-0.111006
-0.108811
-0.106881
-0.105028
-0.103447
-0.10193
-0.100679
-0.099385
-0.0983193
-0.0974325
-0.0964279
-0.0951073
-0.0940588
-0.0926057
-0.0914371
-0.0899863
-0.0888382
-0.0872544
-0.0856068
-0.0829223
-0.0788293
-0.0673808
-0.059552
-0.161528
-0.162941
-0.165476
-0.1681
-0.172637
-0.174113
-0.172111
-0.167966
-0.163534
-0.159517
-0.154999
-0.150298
-0.146093
-0.142763
-0.140334
-0.138512
-0.136872
-0.135163
-0.133235
-0.131112
-0.128732
-0.126246
-0.123608
-0.120997
-0.118321
-0.115791
-0.113281
-0.111004
-0.108809
-0.106879
-0.105027
-0.103446
-0.101928
-0.100678
-0.0993854
-0.0983189
-0.0974295
-0.0964201
-0.0950954
-0.0940442
-0.0925911
-0.0914233
-0.0899723
-0.0888234
-0.0872392
-0.0855902
-0.0829032
-0.0788095
-0.0673649
-0.0595393
-0.161528
-0.162941
-0.165476
-0.1681
-0.172637
-0.174113
-0.172111
-0.167966
-0.163534
-0.159517
-0.154999
-0.150298
-0.146093
-0.142763
-0.140334
-0.138512
-0.136872
-0.135163
-0.133235
-0.131112
-0.128733
-0.126246
-0.123608
-0.120997
-0.118322
-0.115792
-0.113281
-0.111005
-0.108809
-0.106879
-0.105027
-0.103446
-0.101929
-0.100678
-0.0993853
-0.0983211
-0.0974342
-0.0964259
-0.0951002
-0.0940474
-0.0925943
-0.091427
-0.0899759
-0.0888277
-0.0872443
-0.085595
-0.0829084
-0.0788143
-0.067369
-0.0595444
-0.120804
-0.123024
-0.129366
-0.132602
-0.136088
-0.135256
-0.131438
-0.126577
-0.122342
-0.11955
-0.117382
-0.115345
-0.113409
-0.111466
-0.109544
-0.107582
-0.10544
-0.103119
-0.100586
-0.0980233
-0.0954107
-0.0930088
-0.0906826
-0.0886581
-0.0866865
-0.0849859
-0.0832757
-0.0818031
-0.0803047
-0.0790446
-0.0777622
-0.0767614
-0.0756945
-0.0749192
-0.0740577
-0.0735904
-0.0728576
-0.0725071
-0.0719115
-0.0715372
-0.0708427
-0.0703866
-0.0696804
-0.0691178
-0.0683414
-0.0673276
-0.0658263
-0.0629231
-0.0552381
-0.0473592
-0.120804
-0.123024
-0.129366
-0.132602
-0.136087
-0.135256
-0.131438
-0.126577
-0.122342
-0.11955
-0.117382
-0.115345
-0.113408
-0.111465
-0.109544
-0.107582
-0.105439
-0.103118
-0.100586
-0.0980223
-0.0954096
-0.0930076
-0.0906812
-0.0886567
-0.0866853
-0.084985
-0.0832752
-0.0818028
-0.0803049
-0.079045
-0.0777624
-0.0767616
-0.0756956
-0.0749209
-0.0740614
-0.0735921
-0.0728574
-0.0725045
-0.0719078
-0.0715329
-0.0708408
-0.0703833
-0.069677
-0.0691146
-0.068339
-0.0673282
-0.0658309
-0.0629344
-0.0552562
-0.047381
-0.120804
-0.123024
-0.129366
-0.132602
-0.136087
-0.135256
-0.131438
-0.126577
-0.122342
-0.11955
-0.117382
-0.115345
-0.113408
-0.111465
-0.109544
-0.107582
-0.10544
-0.103118
-0.100587
-0.0980237
-0.0954116
-0.0930101
-0.0906844
-0.0886604
-0.0866898
-0.0849896
-0.0832794
-0.081807
-0.0803088
-0.0790483
-0.0777651
-0.0767642
-0.0756968
-0.0749232
-0.0740639
-0.0735908
-0.0728561
-0.072505
-0.0719079
-0.0715348
-0.0708465
-0.0703919
-0.0696862
-0.0691245
-0.0683472
-0.0673363
-0.0658402
-0.0629438
-0.05526
-0.0473778
-0.120804
-0.123024
-0.129366
-0.132602
-0.136088
-0.135256
-0.131438
-0.126577
-0.122342
-0.11955
-0.117382
-0.115345
-0.113409
-0.111465
-0.109544
-0.107582
-0.10544
-0.103118
-0.100586
-0.0980235
-0.095411
-0.0930097
-0.0906837
-0.0886594
-0.0866886
-0.0849886
-0.0832785
-0.0818063
-0.0803082
-0.0790478
-0.0777652
-0.0767638
-0.0756957
-0.0749244
-0.0740642
-0.0735887
-0.0728535
-0.0725049
-0.0719077
-0.0715327
-0.0708414
-0.0703892
-0.0696846
-0.0691246
-0.0683476
-0.0673367
-0.0658392
-0.0629428
-0.0552588
-0.047376
-0.120804
-0.123024
-0.129366
-0.132602
-0.136088
-0.135256
-0.131438
-0.126577
-0.122342
-0.11955
-0.117382
-0.115345
-0.113409
-0.111465
-0.109544
-0.107582
-0.10544
-0.103119
-0.100586
-0.0980243
-0.0954121
-0.0930109
-0.0906855
-0.0886617
-0.0866911
-0.0849914
-0.0832815
-0.0818091
-0.0803109
-0.0790505
-0.0777679
-0.0767663
-0.0756983
-0.0749249
-0.074063
-0.0735913
-0.0728584
-0.0725125
-0.0719182
-0.0715455
-0.070851
-0.0703966
-0.0696904
-0.0691291
-0.0683526
-0.0673407
-0.0658382
-0.0629387
-0.0552487
-0.0473637
-0.0423284
-0.0411315
-0.0394889
-0.0443726
-0.0519451
-0.0566915
-0.0571462
-0.054409
-0.0508094
-0.0473233
-0.0437151
-0.0402604
-0.0368319
-0.0333248
-0.0301522
-0.0275356
-0.0255571
-0.0242422
-0.0233717
-0.0229006
-0.0225077
-0.0222649
-0.0218966
-0.0216196
-0.0211961
-0.0209422
-0.0205791
-0.0204723
-0.0202831
-0.020389
-0.0203936
-0.0207186
-0.020888
-0.0213596
-0.0216799
-0.0222321
-0.0226655
-0.0233142
-0.0239012
-0.0246051
-0.0252891
-0.0259602
-0.0267185
-0.0272803
-0.028082
-0.0283836
-0.0288985
-0.028438
-0.0259035
-0.0253149
-0.0423283
-0.0411317
-0.0394883
-0.044371
-0.0519463
-0.0566942
-0.057146
-0.0544085
-0.0508087
-0.0473224
-0.0437164
-0.0402606
-0.0368312
-0.0333246
-0.0301518
-0.0275358
-0.0255569
-0.0242409
-0.0233711
-0.0228997
-0.0225067
-0.0222644
-0.0218961
-0.0216195
-0.0211964
-0.0209426
-0.0205804
-0.0204743
-0.0202853
-0.020392
-0.0203969
-0.0207211
-0.0208912
-0.0213606
-0.021681
-0.0222366
-0.0226728
-0.0233211
-0.0239038
-0.0246082
-0.0252947
-0.0259656
-0.026723
-0.0272847
-0.0280847
-0.0283893
-0.0289029
-0.0284474
-0.0259228
-0.0253466
-0.0423283
-0.0411313
-0.03949
-0.0443704
-0.0519426
-0.0566957
-0.0571467
-0.0544083
-0.0508077
-0.0473233
-0.0437182
-0.0402595
-0.0368304
-0.0333245
-0.030152
-0.0275359
-0.025558
-0.0242409
-0.0233715
-0.0229011
-0.0225085
-0.0222672
-0.0218993
-0.0216225
-0.0212003
-0.0209465
-0.020584
-0.0204783
-0.0202887
-0.0203947
-0.0203993
-0.0207226
-0.0208928
-0.021363
-0.021682
-0.0222346
-0.0226726
-0.0233234
-0.023906
-0.0246085
-0.0252966
-0.0259699
-0.0267291
-0.0272923
-0.0280902
-0.0283947
-0.0289094
-0.028457
-0.0259236
-0.0253379
-0.0423282
-0.0411311
-0.0394898
-0.0443725
-0.0519405
-0.0566941
-0.0571473
-0.0544085
-0.0508076
-0.0473242
-0.0437181
-0.0402588
-0.0368305
-0.0333243
-0.0301518
-0.0275354
-0.0255582
-0.0242417
-0.0233708
-0.0229007
-0.0225073
-0.0222655
-0.021898
-0.0216206
-0.0211978
-0.0209439
-0.0205812
-0.0204754
-0.0202863
-0.0203928
-0.0203975
-0.0207215
-0.020891
-0.0213627
-0.0216809
-0.0222327
-0.022668
-0.0233196
-0.0239039
-0.0246025
-0.0252876
-0.0259611
-0.0267212
-0.0272848
-0.0280838
-0.028386
-0.0289031
-0.0284529
-0.0259247
-0.0253465
-0.0423282
-0.0411313
-0.0394889
-0.0443728
-0.0519422
-0.056692
-0.057147
-0.0544089
-0.0508084
-0.0473243
-0.0437159
-0.0402594
-0.0368311
-0.0333244
-0.0301518
-0.0275352
-0.0255576
-0.0242426
-0.0233716
-0.0229016
-0.0225092
-0.0222675
-0.0219004
-0.0216243
-0.0212018
-0.0209487
-0.0205857
-0.0204795
-0.0202906
-0.0203962
-0.0204006
-0.0207246
-0.0208937
-0.0213656
-0.0216855
-0.0222357
-0.0226692
-0.0233208
-0.0239101
-0.0246116
-0.025296
-0.0259694
-0.0267295
-0.0272948
-0.0280959
-0.0284003
-0.0289174
-0.0284605
-0.0259247
-0.0253376
0.0712064
0.0427731
0.0440891
0.0491523
0.0556905
0.0616373
0.0674503
0.0729961
0.0781231
0.0814062
0.0826969
0.0823868
0.0798844
0.0764098
0.0726955
0.0692686
0.066415
0.0641544
0.0624414
0.0610077
0.0597517
0.0583762
0.0569318
0.0551907
0.0533712
0.0512837
0.0492316
0.0469975
0.04492
0.0427283
0.0407548
0.0386921
0.0368522
0.0349054
0.0331476
0.0312827
0.0295695
0.0277416
0.0260151
0.0241942
0.0224178
0.0205689
0.0187276
0.0168729
0.0149421
0.0130645
0.0110184
0.00883026
0.00603352
0.000132189
0.0712068
0.042773
0.0440888
0.0491522
0.055692
0.0616391
0.0674485
0.0729962
0.0781235
0.0814119
0.0826989
0.0823832
0.0798837
0.0764091
0.0726961
0.0692696
0.0664161
0.0641549
0.0624413
0.0610085
0.0597521
0.0583783
0.0569332
0.0551923
0.0533727
0.051284
0.0492321
0.0469971
0.044921
0.0427284
0.040756
0.0386922
0.0368524
0.0349063
0.0331472
0.0312835
0.0295719
0.0277451
0.0260173
0.0241952
0.0224166
0.0205643
0.018719
0.0168624
0.0149346
0.0130593
0.0110148
0.00882476
0.00602474
0.000111971
0.0712069
0.0427731
0.0440884
0.0491506
0.0556933
0.0616401
0.0674487
0.0729946
0.0781246
0.0814157
0.0826949
0.0823844
0.0798849
0.0764092
0.072695
0.0692696
0.0664165
0.0641556
0.0624412
0.0610074
0.0597507
0.0583764
0.0569322
0.0551912
0.0533709
0.0512824
0.0492295
0.0469944
0.0449179
0.0427267
0.0407532
0.0386921
0.0368509
0.0349044
0.0331456
0.0312809
0.0295694
0.0277448
0.0260146
0.0241947
0.0224195
0.0205709
0.0187244
0.0168672
0.0149332
0.0130557
0.0110101
0.00882466
0.00602842
0.000122222
0.0712069
0.0427736
0.0440886
0.0491503
0.0556921
0.0616415
0.0674495
0.0729937
0.0781239
0.0814123
0.0826911
0.082388
0.079887
0.0764095
0.0726953
0.0692687
0.0664169
0.0641556
0.0624425
0.0610076
0.0597512
0.0583768
0.0569332
0.0551925
0.0533733
0.0512843
0.0492315
0.0469958
0.044919
0.0427273
0.0407546
0.0386922
0.0368529
0.0349051
0.0331464
0.0312815
0.02957
0.0277473
0.0260178
0.0241925
0.0224133
0.0205672
0.0187242
0.0168709
0.0149411
0.0130662
0.0110196
0.00882939
0.00603062
0.000112983
0.0712069
0.0427736
0.0440893
0.0491516
0.0556897
0.0616398
0.0674519
0.0729948
0.0781237
0.0814063
0.0826921
0.0823886
0.0798871
0.0764097
0.0726954
0.0692683
0.0664159
0.0641557
0.062442
0.0610082
0.0597501
0.0583751
0.0569306
0.0551901
0.0533708
0.0512826
0.0492294
0.0469937
0.044916
0.0427238
0.0407513
0.038689
0.0368493
0.0349029
0.0331441
0.0312796
0.0295668
0.0277429
0.0260183
0.0241958
0.0224113
0.020561
0.018714
0.0168581
0.0149251
0.0130498
0.0110012
0.00881607
0.00602408
0.000118736
0.263736
0.2802
0.275158
0.271626
0.268117
0.261469
0.251736
0.239758
0.227528
0.21724
0.208788
0.201157
0.195502
0.190712
0.186233
0.181881
0.177385
0.172696
0.167782
0.162739
0.157656
0.15264
0.147773
0.143057
0.138549
0.134182
0.129986
0.125893
0.121918
0.118037
0.114226
0.110533
0.106872
0.103355
0.0998269
0.0964693
0.0930804
0.0898539
0.0865697
0.0834471
0.0802589
0.0771806
0.0740599
0.0709718
0.0679066
0.0645952
0.0610983
0.0558309
0.0487658
0.0382863
0.263736
0.2802
0.275159
0.271626
0.268117
0.261473
0.251738
0.239756
0.227526
0.217237
0.208792
0.20116
0.195502
0.190711
0.186233
0.181881
0.177387
0.172697
0.167782
0.16274
0.157656
0.152641
0.147775
0.143059
0.138551
0.134182
0.129987
0.125893
0.121917
0.118037
0.114226
0.110533
0.106872
0.103355
0.0998278
0.0964712
0.0930813
0.0898552
0.0865716
0.0834472
0.0802579
0.0771779
0.0740562
0.0709673
0.0679038
0.0645943
0.0610955
0.0558342
0.0487592
0.0382687
0.263737
0.2802
0.275159
0.271627
0.268116
0.261473
0.251741
0.239758
0.227525
0.217235
0.208795
0.20116
0.195501
0.190711
0.186232
0.18188
0.177387
0.172698
0.167782
0.162739
0.157655
0.152639
0.147773
0.143057
0.138552
0.134182
0.129986
0.125892
0.121915
0.118035
0.114224
0.110533
0.106872
0.103354
0.0998266
0.0964708
0.0930808
0.0898542
0.0865708
0.0834472
0.0802585
0.0771796
0.0740583
0.0709707
0.0679036
0.0645931
0.061096
0.0558368
0.0487625
0.0382761
0.263737
0.2802
0.275159
0.271627
0.268115
0.26147
0.251741
0.239761
0.227526
0.217237
0.208793
0.201158
0.195502
0.190711
0.186233
0.18188
0.177386
0.172698
0.167783
0.16274
0.157656
0.152639
0.147772
0.143056
0.138551
0.134183
0.129988
0.125894
0.121918
0.118037
0.114226
0.110533
0.106874
0.103356
0.0998274
0.0964714
0.0930824
0.0898555
0.0865731
0.0834473
0.0802579
0.07718
0.07406
0.0709738
0.0679082
0.0645957
0.0610992
0.0558401
0.0487622
0.0382684
0.263737
0.2802
0.275158
0.271627
0.268116
0.261468
0.251739
0.23976
0.227528
0.21724
0.20879
0.201156
0.195503
0.190712
0.186233
0.181881
0.177385
0.172698
0.167783
0.16274
0.157656
0.15264
0.147772
0.143055
0.138548
0.134179
0.129984
0.12589
0.121915
0.118033
0.114222
0.11053
0.10687
0.103353
0.099824
0.0964673
0.0930788
0.0898525
0.0865708
0.0834477
0.0802561
0.0771764
0.0740541
0.0709648
0.0678984
0.0645855
0.0610879
0.0558229
0.04875
0.0382687
)
;

boundaryField
{
    inlet
    {
        type            zeroGradient;
    }
    outlet
    {
        type            fixedValue;
        value           uniform 0;
    }
    side1
    {
        type            cyclicAMI;
        value           nonuniform List<scalar> 
250
(
-0.161528
-0.120804
-0.0423283
0.0712066
0.263736
-0.162941
-0.123024
-0.0411314
0.0427732
0.2802
-0.165476
-0.129366
-0.039489
0.0440891
0.275158
-0.1681
-0.132602
-0.0443728
0.0491519
0.271626
-0.172637
-0.136088
-0.0519437
0.0556901
0.268117
-0.174113
-0.135256
-0.0566918
0.0616385
0.261469
-0.172111
-0.131438
-0.0571467
0.067451
0.251737
-0.167966
-0.126577
-0.054409
0.0729953
0.239759
-0.163534
-0.122342
-0.0508089
0.0781233
0.227528
-0.159517
-0.11955
-0.0473239
0.0814061
0.21724
-0.154999
-0.117382
-0.0437156
0.0826944
0.208789
-0.150298
-0.115345
-0.04026
0.0823876
0.201156
-0.146093
-0.113409
-0.0368316
0.0798857
0.195502
-0.142763
-0.111466
-0.0333246
0.0764096
0.190712
-0.140334
-0.109544
-0.030152
0.0726954
0.186233
-0.138512
-0.107582
-0.0275355
0.0692683
0.181881
-0.136872
-0.10544
-0.0255574
0.0664154
0.177385
-0.135163
-0.103119
-0.0242424
0.064155
0.172697
-0.133235
-0.100586
-0.0233717
0.0624416
0.167782
-0.131112
-0.0980238
-0.0229012
0.0610079
0.162739
-0.128732
-0.0954114
-0.0225085
0.0597508
0.157656
-0.126246
-0.0930098
-0.0222662
0.0583756
0.15264
-0.123607
-0.090684
-0.0218986
0.0569311
0.147772
-0.120996
-0.0886599
-0.021622
0.0551903
0.143056
-0.118321
-0.0866888
-0.021199
0.053371
0.138549
-0.11579
-0.0849887
-0.0209455
0.0512831
0.13418
-0.11328
-0.0832786
-0.0205825
0.0492305
0.129985
-0.111003
-0.0818061
-0.0204759
0.0469955
0.125891
-0.108808
-0.0803078
-0.0202869
0.0449179
0.121916
-0.106878
-0.0790475
-0.0203926
0.042726
0.118035
-0.105026
-0.077765
-0.0203971
0.040753
0.114224
-0.103445
-0.0767639
-0.0207216
0.0386905
0.110531
-0.101929
-0.0756964
-0.0208908
0.0368507
0.106871
-0.100678
-0.074922
-0.0213626
0.0349041
0.103354
-0.0993838
-0.0740603
-0.0216827
0.0331458
0.0998254
-0.0983208
-0.0735908
-0.0222339
0.0312811
0.0964683
-0.0974343
-0.072858
-0.0226673
0.0295681
0.0930796
-0.0964279
-0.0725098
-0.0233175
0.0277422
0.0898531
-0.0951024
-0.0719149
-0.0239057
0.0260166
0.0865702
-0.0940503
-0.0715414
-0.0246084
0.0241949
0.0834473
-0.0925968
-0.0708468
-0.0252926
0.0224145
0.0802574
-0.0914294
-0.0703916
-0.0259648
0.0205649
0.0771784
-0.0899784
-0.0696854
-0.026724
0.0187208
0.074057
-0.0888302
-0.0691235
-0.0272876
0.0168654
0.0709682
-0.0872472
-0.068347
-0.028089
0.0149336
0.0679025
-0.0855978
-0.0673342
-0.028392
0.0130571
0.0645903
-0.0829129
-0.0658323
-0.028908
0.0110097
0.061093
-0.0788193
-0.0629309
-0.0284493
0.00882313
0.0558268
-0.0673731
-0.0552434
-0.0259141
0.00602877
0.0487579
-0.0595489
-0.0473615
-0.0253263
0.000125441
0.0382774
)
;
    }
    side2
    {
        type            cyclicAMI;
        value           nonuniform List<scalar> 
250
(
-0.161528
-0.120804
-0.0423282
0.0712069
0.263737
-0.162941
-0.123024
-0.0411313
0.0427736
0.2802
-0.165476
-0.129366
-0.0394888
0.0440895
0.275158
-0.1681
-0.132602
-0.0443726
0.0491522
0.271627
-0.172637
-0.136088
-0.0519436
0.0556904
0.268117
-0.174113
-0.135256
-0.0566917
0.0616388
0.261469
-0.172111
-0.131438
-0.0571465
0.0674513
0.251737
-0.167966
-0.126577
-0.0544089
0.0729956
0.239759
-0.163534
-0.122342
-0.0508088
0.0781236
0.227528
-0.159517
-0.11955
-0.0473237
0.0814064
0.21724
-0.154999
-0.117382
-0.0437154
0.0826947
0.208789
-0.150298
-0.115345
-0.0402598
0.0823878
0.201156
-0.146093
-0.113408
-0.0368314
0.0798859
0.195503
-0.142763
-0.111466
-0.0333245
0.0764099
0.190712
-0.140334
-0.109544
-0.0301519
0.0726956
0.186233
-0.138512
-0.107582
-0.0275353
0.0692685
0.181881
-0.136872
-0.10544
-0.0255573
0.0664156
0.177385
-0.135163
-0.103119
-0.0242423
0.0641552
0.172697
-0.133235
-0.100586
-0.0233716
0.0624418
0.167782
-0.131112
-0.0980237
-0.0229011
0.0610081
0.162739
-0.128732
-0.0954113
-0.0225084
0.059751
0.157656
-0.126246
-0.0930098
-0.0222661
0.0583758
0.15264
-0.123607
-0.090684
-0.0218985
0.0569313
0.147772
-0.120996
-0.0886599
-0.0216219
0.0551905
0.143056
-0.118321
-0.0866888
-0.0211989
0.0533711
0.138549
-0.11579
-0.0849886
-0.0209454
0.0512832
0.134181
-0.11328
-0.0832786
-0.0205824
0.0492306
0.129985
-0.111003
-0.0818061
-0.0204758
0.0469957
0.125891
-0.108808
-0.0803078
-0.0202868
0.044918
0.121916
-0.106878
-0.0790475
-0.0203925
0.0427261
0.118035
-0.105026
-0.077765
-0.020397
0.0407531
0.114224
-0.103445
-0.0767638
-0.0207215
0.0386907
0.110531
-0.101929
-0.0756964
-0.0208908
0.0368509
0.106871
-0.100678
-0.074922
-0.0213626
0.0349042
0.103354
-0.0993838
-0.0740603
-0.0216827
0.0331459
0.0998254
-0.0983208
-0.0735908
-0.0222339
0.0312813
0.0964683
-0.0974343
-0.072858
-0.0226673
0.0295682
0.0930796
-0.0964279
-0.0725098
-0.0233175
0.0277423
0.0898532
-0.0951024
-0.0719148
-0.0239056
0.0260168
0.0865703
-0.0940503
-0.0715413
-0.0246083
0.024195
0.0834474
-0.0925968
-0.0708468
-0.0252925
0.0224146
0.0802575
-0.0914294
-0.0703916
-0.0259648
0.020565
0.0771785
-0.0899784
-0.0696854
-0.026724
0.0187209
0.074057
-0.0888302
-0.0691234
-0.0272875
0.0168655
0.0709683
-0.0872472
-0.068347
-0.0280889
0.0149337
0.0679025
-0.0855978
-0.0673341
-0.0283919
0.0130572
0.0645904
-0.0829129
-0.0658322
-0.0289079
0.0110098
0.0610931
-0.0788193
-0.0629309
-0.0284492
0.00882321
0.0558269
-0.0673731
-0.0552434
-0.025914
0.00602885
0.0487579
-0.0595489
-0.0473615
-0.0253262
0.000125505
0.0382775
)
;
    }
    walls
    {
        type            zeroGradient;
    }
}


// ************************************************************************* //
