/*--------------------------------*- C++ -*----------------------------------*\
| =========                 |                                                 |
| \\      /  F ield         | OpenFOAM: The Open Source CFD Toolbox           |
|  \\    /   O peration     | Version:  v2006                                 |
|   \\  /    A nd           | Website:  www.openfoam.com                      |
|    \\/     M anipulation  |                                                 |
\*---------------------------------------------------------------------------*/
FoamFile
{
    version     2.0;
    format      ascii;
    class       surfaceScalarField;
    location    "200";
    object      phi;
}
// * * * * * * * * * * * * * * * * * * * * * * * * * * * * * * * * * * * * * //

dimensions      [0 3 -1 0 0 0 0];
oriented        oriented;


internalField   nonuniform List<scalar> 
3225
(
0.00154622
0.00255404
-1.13761e-06
0.00154955
0.00249689
-3.32574e-06
0.00155326
0.00241183
-3.71424e-06
0.00155973
0.00232904
-6.46389e-06
0.00156398
0.00227388
-4.25577e-06
0.00156341
0.00226371
5.68409e-07
0.0015586
0.00231374
4.80343e-06
0.00155208
0.00240375
6.5229e-06
0.00154568
0.00248969
6.38991e-06
0.00153896
0.00252871
6.71889e-06
0.00153188
0.00249181
7.07843e-06
0.00152526
0.0023978
6.61266e-06
0.00151979
0.00228477
5.45038e-06
0.00151578
0.00218834
3.98644e-06
0.00151289
0.00212597
2.8764e-06
0.00151055
0.00210127
2.32905e-06
0.00150821
0.00210861
2.32603e-06
0.00150563
0.00213674
2.55381e-06
0.0015026
0.00217452
3.02239e-06
0.00149911
0.00220858
3.54204e-06
0.00149517
0.0022321
3.97866e-06
0.0014909
0.00223899
4.39403e-06
0.00148638
0.00223223
4.63954e-06
0.00148173
0.00221179
4.88461e-06
0.00147696
0.00218452
5.0156e-06
0.00147222
0.00215181
5.11431e-06
0.00146765
0.00211937
4.92641e-06
0.0014633
0.00208809
4.76092e-06
0.00145936
0.00206052
4.30901e-06
0.00145577
0.00203529
3.95972e-06
0.00145262
0.00201433
3.49301e-06
0.00144985
0.00199189
2.98924e-06
0.00144744
0.00197745
2.78134e-06
0.00144527
0.00195797
2.2e-06
0.00144374
0.00194211
1.70878e-06
0.00144302
0.00192136
9.36235e-07
0.00144268
0.00190567
8.87771e-07
0.00144347
0.00186881
-1.81946e-07
0.00144537
0.0018287
-1.31043e-06
0.00144772
0.00179293
-1.8536e-06
0.00145063
0.00175367
-2.36038e-06
0.0014534
0.00172389
-2.2773e-06
0.00145696
0.00169048
-3.02997e-06
0.00146023
0.00166271
-2.71921e-06
0.00146435
0.00162539
-3.63123e-06
0.00146715
0.00160282
-2.19786e-06
0.00146597
0.00155218
1.69696e-06
0.0014601
0.00153274
6.32629e-06
0.00141429
0.00144565
4.61886e-05
0.00135363
6.6744e-05
0.00154622
0.00255404
-1.1366e-06
0.00154955
0.00249688
-3.32378e-06
0.00155326
0.00241184
-3.7204e-06
0.00155973
0.00232903
-6.46231e-06
0.00156398
0.00227388
-4.25625e-06
0.00156341
0.00226371
5.76787e-07
0.0015586
0.00231374
4.80272e-06
0.00155208
0.00240375
6.51675e-06
0.00154568
0.00248969
6.39242e-06
0.00153896
0.00252871
6.71777e-06
0.00153188
0.00249182
7.07285e-06
0.00152526
0.0023978
6.61672e-06
0.00151979
0.00228477
5.45846e-06
0.00151578
0.00218834
3.98765e-06
0.00151289
0.00212597
2.87453e-06
0.00151055
0.00210127
2.32699e-06
0.00150821
0.00210862
2.32472e-06
0.00150564
0.00213675
2.54982e-06
0.0015026
0.00217453
3.01755e-06
0.00149911
0.0022086
3.51826e-06
0.00149518
0.00223215
3.92733e-06
0.00149091
0.00223905
4.32138e-06
0.00148639
0.00223231
4.54848e-06
0.00148175
0.00221189
4.76108e-06
0.00147699
0.00218465
4.85567e-06
0.00147225
0.00215195
4.92544e-06
0.00146768
0.00211954
4.70298e-06
0.00146333
0.00208827
4.52367e-06
0.0014594
0.0020607
4.09081e-06
0.0014558
0.00203545
3.74486e-06
0.00145265
0.00201451
3.2815e-06
0.00144988
0.00199201
2.83585e-06
0.00144746
0.00197761
2.55182e-06
0.0014453
0.00195807
2.1353e-06
0.00144376
0.00194212
1.64204e-06
0.00144302
0.00192151
6.78419e-07
0.00144268
0.00190615
-2.38279e-08
0.00144347
0.00186926
-9.83474e-07
0.00144538
0.00182913
-1.92722e-06
0.00144773
0.00179341
-2.49692e-06
0.00145063
0.00175413
-2.98891e-06
0.00145341
0.00172435
-2.89948e-06
0.00145696
0.00169093
-3.64566e-06
0.00146024
0.00166319
-3.35863e-06
0.00146436
0.00162588
-4.27744e-06
0.00146715
0.00160333
-2.87359e-06
0.00146596
0.00155272
1.05837e-06
0.00146008
0.00153329
5.72201e-06
0.00141426
0.0014462
4.56846e-05
0.00135412
6.63991e-05
0.00154622
0.00255405
-1.13666e-06
0.00154955
0.00249688
-3.32442e-06
0.00155326
0.00241184
-3.71518e-06
0.00155973
0.00232903
-6.46568e-06
0.00156398
0.00227388
-4.25538e-06
0.00156341
0.0022637
5.75673e-07
0.0015586
0.00231374
4.81122e-06
0.00155208
0.00240375
6.51895e-06
0.00154568
0.00248969
6.39049e-06
0.00153896
0.00252871
6.71513e-06
0.00153188
0.00249182
7.0681e-06
0.00152526
0.00239779
6.61513e-06
0.00151979
0.00228476
5.46177e-06
0.00151578
0.00218835
3.99164e-06
0.00151289
0.00212598
2.87344e-06
0.00151055
0.00210127
2.32216e-06
0.00150822
0.00210862
2.32387e-06
0.00150564
0.00213675
2.55082e-06
0.00150261
0.00217453
3.02135e-06
0.00149911
0.00220859
3.53739e-06
0.00149518
0.00223214
3.93878e-06
0.00149091
0.00223902
4.33723e-06
0.0014864
0.00223229
4.56751e-06
0.00148175
0.00221184
4.7917e-06
0.00147699
0.0021846
4.89197e-06
0.00147225
0.00215188
4.97856e-06
0.00146769
0.00211949
4.7511e-06
0.00146333
0.00208821
4.57353e-06
0.0014594
0.00206064
4.13582e-06
0.0014558
0.0020354
3.78353e-06
0.00145266
0.00201447
3.34025e-06
0.00144988
0.00199199
2.85448e-06
0.00144747
0.00197757
2.59758e-06
0.0014453
0.00195805
2.16598e-06
0.00144376
0.00194212
1.57092e-06
0.00144302
0.00192153
7.27301e-07
0.00144268
0.00190635
1.29939e-07
0.00144346
0.00186937
-8.0224e-07
0.00144536
0.00182914
-1.73357e-06
0.00144771
0.00179346
-2.28969e-06
0.00145061
0.00175419
-2.80572e-06
0.00145338
0.00172439
-2.7122e-06
0.00145693
0.00169097
-3.44784e-06
0.0014602
0.00166322
-3.13369e-06
0.00146431
0.00162594
-4.06766e-06
0.00146709
0.0016034
-2.64813e-06
0.00146589
0.00155278
1.30379e-06
0.00146
0.00153332
6.03986e-06
0.00141416
0.00144619
4.60542e-05
0.00135415
6.67635e-05
0.00154622
0.00255405
-1.13648e-06
0.00154955
0.00249689
-3.3253e-06
0.00155326
0.00241184
-3.71295e-06
0.00155973
0.00232903
-6.46829e-06
0.00156398
0.00227388
-4.24783e-06
0.00156341
0.00226371
5.69561e-07
0.0015586
0.00231374
4.80764e-06
0.00155208
0.00240375
6.52192e-06
0.00154568
0.00248969
6.39225e-06
0.00153896
0.00252871
6.71576e-06
0.00153188
0.00249183
7.07195e-06
0.00152526
0.0023978
6.60986e-06
0.00151979
0.00228476
5.4591e-06
0.00151578
0.00218835
3.99295e-06
0.00151289
0.00212598
2.87752e-06
0.00151055
0.00210128
2.32583e-06
0.00150822
0.00210862
2.32338e-06
0.00150564
0.00213676
2.55095e-06
0.00150261
0.00217454
3.01758e-06
0.00149911
0.00220859
3.54749e-06
0.00149518
0.00223217
3.96013e-06
0.00149091
0.00223905
4.36889e-06
0.0014864
0.00223233
4.59802e-06
0.00148175
0.00221189
4.83233e-06
0.00147699
0.00218467
4.93773e-06
0.00147225
0.00215194
5.0388e-06
0.00146768
0.00211957
4.83288e-06
0.00146333
0.00208829
4.66075e-06
0.00145939
0.00206072
4.21328e-06
0.00145579
0.00203549
3.84892e-06
0.00145265
0.00201452
3.43519e-06
0.00144988
0.00199206
2.89534e-06
0.00144746
0.00197768
2.63109e-06
0.00144529
0.0019581
2.20786e-06
0.00144375
0.00194218
1.61638e-06
0.00144302
0.00192158
7.84278e-07
0.00144267
0.00190643
4.28059e-07
0.00144345
0.00186945
-5.76331e-07
0.00144536
0.00182919
-1.50323e-06
0.0014477
0.0017935
-2.00919e-06
0.0014506
0.00175422
-2.51942e-06
0.00145338
0.00172444
-2.44595e-06
0.00145693
0.00169099
-3.18226e-06
0.0014602
0.00166322
-2.82856e-06
0.00146432
0.00162594
-3.7479e-06
0.0014671
0.00160336
-2.28399e-06
0.0014659
0.00155273
1.6998e-06
0.00146001
0.00153321
6.42661e-06
0.00141419
0.001446
4.64615e-05
0.00135393
6.71637e-05
0.00154622
-1.13605e-06
0.00154955
-3.32481e-06
0.00155326
-3.71382e-06
0.00155973
-6.46823e-06
0.00156398
-4.25035e-06
0.00156341
5.7005e-07
0.0015586
4.80923e-06
0.00155208
6.51949e-06
0.00154568
6.39112e-06
0.00153896
6.71673e-06
0.00153188
7.07689e-06
0.00152526
6.6083e-06
0.00151979
5.45284e-06
0.00151578
3.9914e-06
0.00151289
2.87982e-06
0.00151055
2.32536e-06
0.00150821
2.32464e-06
0.00150564
2.55835e-06
0.0015026
3.02266e-06
0.00149911
3.54812e-06
0.00149518
3.97491e-06
0.00149091
4.39004e-06
0.00148639
4.63026e-06
0.00148174
4.87573e-06
0.00147697
4.99098e-06
0.00147223
5.0844e-06
0.00146766
4.89997e-06
0.00146331
4.73952e-06
0.00145937
4.29227e-06
0.00145578
3.93984e-06
0.00145263
3.52282e-06
0.00144986
2.95283e-06
0.00144745
2.76069e-06
0.00144527
2.28062e-06
0.00144374
1.57838e-06
0.00144301
8.11979e-07
0.00144267
6.14443e-07
0.00144345
-4.13008e-07
0.00144535
-1.35187e-06
0.0014477
-1.83899e-06
0.00145061
-2.33009e-06
0.00145338
-2.26933e-06
0.00145693
-3.028e-06
0.00146021
-2.68627e-06
0.00146433
-3.59248e-06
0.00146712
-2.1228e-06
0.00146593
1.8548e-06
0.00146005
6.55176e-06
0.00141424
4.65062e-05
6.71962e-05
0.0046401
0.00607965
-5.98614e-06
0.00466463
0.00614346
-2.78568e-05
0.00467987
0.00624176
-1.89651e-05
0.00469709
0.00642416
-2.36729e-05
0.00470039
0.00656251
-7.517e-06
0.00468958
0.00657974
1.13748e-05
0.00467022
0.0064288
2.41122e-05
0.00465027
0.00618003
2.64492e-05
0.00463535
0.00593891
2.13095e-05
0.00462434
0.00577391
1.77602e-05
0.00461465
0.00571515
1.67993e-05
0.00460544
0.00575719
1.5804e-05
0.00459601
0.00586207
1.48263e-05
0.00458649
0.00599208
1.34832e-05
0.00457665
0.0061055
1.27135e-05
0.00456622
0.0061756
1.27954e-05
0.00455509
0.00619089
1.34634e-05
0.0045433
0.00615508
1.4262e-05
0.00453121
0.00608459
1.50915e-05
0.00451918
0.00599471
1.55335e-05
0.00450757
0.00590251
1.5555e-05
0.00449672
0.00581548
1.52573e-05
0.00448663
0.00574001
1.47143e-05
0.00447737
0.00567281
1.41303e-05
0.00446868
0.0056135
1.36704e-05
0.00446045
0.00555541
1.32821e-05
0.00445277
0.00549989
1.25453e-05
0.00444545
0.00544146
1.20517e-05
0.0044389
0.00538454
1.08358e-05
0.00443301
0.00532376
9.8317e-06
0.00442822
0.00526669
8.27513e-06
0.00442424
0.00520528
7.01001e-06
0.00442174
0.00515131
5.25011e-06
0.00441963
0.00509243
4.17345e-06
0.00441804
0.00503916
3.12973e-06
0.00441564
0.00498985
3.29128e-06
0.00441444
0.00493956
1.92933e-06
0.00441342
0.00489104
5.59108e-07
0.0044143
0.00482846
-2.39534e-06
0.00441602
0.00477037
-3.4925e-06
0.00441976
0.0046967
-5.82261e-06
0.00442374
0.0046327
-5.91132e-06
0.0044287
0.004554
-7.58908e-06
0.00443369
0.00449157
-7.24414e-06
0.00443891
0.00440759
-8.37926e-06
0.00444409
0.00434908
-6.91194e-06
0.00444167
0.00424239
4.56176e-06
0.00442425
0.00418069
2.4075e-05
0.00433151
0.00397927
0.000139105
0.00371117
0.000318693
0.0046401
0.00607965
-5.98522e-06
0.00466463
0.00614346
-2.78446e-05
0.00467987
0.00624178
-1.8975e-05
0.00469709
0.00642418
-2.37024e-05
0.00470039
0.00656251
-7.55849e-06
0.00468958
0.00657969
1.14449e-05
0.00467022
0.00642879
2.41721e-05
0.00465027
0.00618007
2.64215e-05
0.00463535
0.00593894
2.12854e-05
0.00462434
0.00577392
1.77121e-05
0.00461465
0.00571511
1.67992e-05
0.00460544
0.00575715
1.58636e-05
0.00459601
0.00586209
1.48626e-05
0.00458649
0.00599212
1.34593e-05
0.00457665
0.00610552
1.26853e-05
0.00456622
0.0061756
1.27503e-05
0.00455509
0.00619083
1.35023e-05
0.0045433
0.00615509
1.43129e-05
0.00453122
0.00608462
1.50616e-05
0.00451919
0.00599473
1.55084e-05
0.00450758
0.00590257
1.544e-05
0.00449675
0.00581548
1.51133e-05
0.00448667
0.00574
1.45846e-05
0.00447741
0.00567279
1.39844e-05
0.00446873
0.00561348
1.34783e-05
0.00446052
0.00555542
1.30584e-05
0.00445284
0.00549994
1.22324e-05
0.00444553
0.00544148
1.17222e-05
0.00443899
0.00538458
1.05002e-05
0.0044331
0.00532379
9.50932e-06
0.00442831
0.00526666
8.02131e-06
0.00442432
0.0052053
6.7225e-06
0.00442181
0.00515131
4.98098e-06
0.00441974
0.0050924
4.14944e-06
0.00441816
0.00503928
3.04314e-06
0.00441575
0.00498992
2.95525e-06
0.00441453
0.00493918
1.45796e-06
0.00441355
0.00489073
1.59038e-07
0.00441446
0.00482845
-2.98745e-06
0.00441613
0.00477048
-4.47492e-06
0.00441984
0.00469679
-6.95767e-06
0.00442377
0.00463286
-7.17007e-06
0.00442872
0.00455419
-8.95312e-06
0.00443367
0.00449186
-8.75245e-06
0.00443884
0.00440785
-9.87186e-06
0.00444402
0.00434932
-8.42935e-06
0.00444163
0.00424264
3.03241e-06
0.00442423
0.00418098
2.26917e-05
0.00433149
0.0039796
0.000137961
0.00371163
0.000317985
0.0046401
0.00607965
-5.98457e-06
0.00466463
0.00614346
-2.78568e-05
0.00467987
0.00624176
-1.89381e-05
0.00469709
0.0064242
-2.36937e-05
0.00470039
0.00656256
-7.60306e-06
0.00468958
0.00657968
1.1393e-05
0.00467022
0.00642874
2.42281e-05
0.00465027
0.00618005
2.64794e-05
0.00463535
0.00593896
2.12928e-05
0.00462435
0.00577396
1.76778e-05
0.00461465
0.00571514
1.67291e-05
0.00460543
0.00575711
1.58729e-05
0.00459601
0.00586205
1.49187e-05
0.00458649
0.00599213
1.34935e-05
0.00457665
0.00610555
1.2683e-05
0.00456622
0.00617565
1.26942e-05
0.00455509
0.00619081
1.34559e-05
0.0045433
0.00615505
1.43617e-05
0.00453122
0.00608463
1.50872e-05
0.0045192
0.00599472
1.5551e-05
0.00450759
0.00590262
1.54707e-05
0.00449676
0.00581556
1.50817e-05
0.00448669
0.00574005
1.45579e-05
0.00447743
0.00567285
1.39843e-05
0.00446875
0.00561352
1.35036e-05
0.00446054
0.00555545
1.31343e-05
0.00445286
0.00550005
1.22903e-05
0.00444555
0.00544159
1.17476e-05
0.00443901
0.00538471
1.05224e-05
0.00443312
0.00532394
9.48831e-06
0.00442833
0.00526677
8.00815e-06
0.00442433
0.00520542
6.6935e-06
0.00442181
0.00515135
5.04472e-06
0.00441976
0.0050924
4.1717e-06
0.0044182
0.00503931
3.06615e-06
0.00441577
0.00499004
2.99017e-06
0.00441451
0.00493909
1.41318e-06
0.00441353
0.00489061
2.36258e-07
0.00441446
0.00482853
-2.80732e-06
0.00441614
0.00477077
-4.3496e-06
0.00441985
0.00469697
-6.765e-06
0.00442381
0.00463299
-6.87397e-06
0.00442878
0.00455433
-8.60043e-06
0.0044337
0.00449206
-8.29236e-06
0.00443886
0.00440818
-9.61898e-06
0.00444402
0.0043497
-8.22004e-06
0.0044416
0.00424301
3.32842e-06
0.00442421
0.00418129
2.30994e-05
0.00433149
0.00397987
0.000138521
0.00371188
0.00031853
0.0046401
0.00607965
-5.98288e-06
0.00466463
0.00614346
-2.78506e-05
0.00467987
0.00624176
-1.89583e-05
0.00469709
0.00642418
-2.36679e-05
0.00470039
0.00656257
-7.56088e-06
0.00468958
0.00657971
1.13453e-05
0.00467022
0.00642873
2.41775e-05
0.00465027
0.00618002
2.64973e-05
0.00463535
0.00593894
2.13354e-05
0.00462435
0.00577398
1.77018e-05
0.00461466
0.00571519
1.67162e-05
0.00460543
0.00575713
1.58092e-05
0.00459601
0.00586202
1.49203e-05
0.00458649
0.0059921
1.3526e-05
0.00457665
0.00610553
1.27273e-05
0.00456622
0.00617568
1.2728e-05
0.00455509
0.00619086
1.33927e-05
0.00454331
0.00615502
1.43531e-05
0.00453122
0.00608462
1.50957e-05
0.0045192
0.00599469
1.55778e-05
0.0045076
0.00590258
1.5553e-05
0.00449675
0.00581555
1.51724e-05
0.00448669
0.00574005
1.46026e-05
0.00447743
0.00567282
1.40529e-05
0.00446874
0.0056135
1.35594e-05
0.00446054
0.00555537
1.3236e-05
0.00445287
0.00549994
1.24874e-05
0.00444555
0.00544152
1.19398e-05
0.00443901
0.00538461
1.07334e-05
0.00443313
0.00532389
9.66136e-06
0.00442833
0.00526672
8.18052e-06
0.00442433
0.00520544
6.78147e-06
0.00442183
0.00515135
5.03101e-06
0.00441977
0.00509235
4.21619e-06
0.00441821
0.00503917
3.24385e-06
0.00441578
0.00499002
3.1595e-06
0.00441449
0.00493932
1.36045e-06
0.00441348
0.00489058
2.97444e-07
0.00441446
0.00482838
-2.52452e-06
0.00441615
0.00477088
-4.04912e-06
0.00441982
0.00469727
-6.71081e-06
0.00442373
0.00463321
-6.8016e-06
0.00442865
0.00455446
-8.45088e-06
0.0044336
0.00449208
-7.99256e-06
0.00443883
0.00440821
-9.20511e-06
0.00444403
0.00434974
-7.70902e-06
0.00444164
0.00424315
3.72677e-06
0.00442425
0.00418139
2.35293e-05
0.00433154
0.00397979
0.000139078
0.00371167
0.00031929
0.0046401
-5.98174e-06
0.00466463
-2.78494e-05
0.00467987
-1.89529e-05
0.00469709
-2.3677e-05
0.00470039
-7.53587e-06
0.00468958
1.13392e-05
0.00467022
2.4157e-05
0.00465027
2.64755e-05
0.00463535
2.13444e-05
0.00462435
1.77401e-05
0.00461466
1.67521e-05
0.00460544
1.57768e-05
0.00459601
1.48649e-05
0.00458649
1.35252e-05
0.00457665
1.27338e-05
0.00456622
1.27761e-05
0.00455509
1.33902e-05
0.00454331
1.4315e-05
0.00453122
1.51205e-05
0.00451919
1.55668e-05
0.00450759
1.55929e-05
0.00449674
1.52329e-05
0.00448667
1.46639e-05
0.00447741
1.40992e-05
0.00446872
1.36138e-05
0.0044605
1.32347e-05
0.00445283
1.25243e-05
0.0044455
1.19969e-05
0.00443896
1.07959e-05
0.00443307
9.78877e-06
0.00442827
8.26939e-06
0.00442429
6.9064e-06
0.00442178
5.21321e-06
0.00441969
4.25349e-06
0.00441812
3.21595e-06
0.00441574
3.24697e-06
0.00441448
1.55065e-06
0.00441341
2.29489e-07
0.00441438
-2.46903e-06
0.00441616
-3.51838e-06
0.00441993
-6.0951e-06
0.00442389
-6.34979e-06
0.00442882
-8.16906e-06
0.00443374
-7.74556e-06
0.00443889
-8.8732e-06
0.00444404
-7.25672e-06
0.00444165
4.36467e-06
0.00442428
2.41214e-05
0.00433158
0.000139475
0.000319627
0.00771989
0.00989679
-4.58236e-07
0.00771192
0.00992128
-1.98754e-05
0.00774061
0.00965731
-4.76725e-05
0.00779452
0.00947976
-7.7654e-05
0.00783625
0.00940554
-4.92151e-05
0.00785296
0.00944297
-5.16534e-06
0.00784049
0.00963997
3.64877e-05
0.00781272
0.00994151
5.40921e-05
0.00778056
0.0102541
5.34175e-05
0.00774659
0.0104892
5.18465e-05
0.00771368
0.0105495
4.98205e-05
0.0076829
0.0104406
4.65278e-05
0.00765425
0.0102113
4.33452e-05
0.00763013
0.00992909
3.75637e-05
0.00761237
0.00965064
3.04723e-05
0.00760169
0.00941183
2.35558e-05
0.00759756
0.00922605
1.76953e-05
0.00759844
0.00909064
1.32508e-05
0.00760266
0.00899186
1.07938e-05
0.00760825
0.00891412
9.86772e-06
0.00761415
0.00884068
9.55683e-06
0.00761956
0.00876219
9.88198e-06
0.00762441
0.00867179
9.87076e-06
0.00762874
0.00856955
9.72726e-06
0.00763314
0.00845622
9.13167e-06
0.00763765
0.00833613
8.56527e-06
0.00764265
0.00821177
7.31187e-06
0.00764782
0.00808762
6.68515e-06
0.00765377
0.0079663
4.72411e-06
0.00765982
0.0078496
3.69861e-06
0.00766661
0.00773943
1.4372e-06
0.00767317
0.00763634
3.7197e-07
0.00768053
0.00753846
-2.16857e-06
0.00768738
0.00744661
-2.81232e-06
0.00769498
0.00735849
-4.59427e-06
0.00770244
0.00727522
-4.43787e-06
0.00770867
0.00719331
-4.58087e-06
0.00771316
0.00711617
-4.19967e-06
0.00771499
0.00703664
-4.74692e-06
0.00771533
0.00695951
-4.5024e-06
0.00771268
0.00687399
-3.79909e-06
0.00771013
0.00679171
-3.8065e-06
0.0077049
0.00669969
-2.74078e-06
0.0077021
0.0066144
-4.67905e-06
0.00769645
0.00651517
-2.99138e-06
0.00769477
0.00642716
-5.41942e-06
0.00768576
0.00631208
1.35346e-05
0.00767295
0.00620261
3.69906e-05
0.0075993
0.00601256
0.000213191
0.00565892
0.00057189
0.00771989
0.00989679
-4.57525e-07
0.00771193
0.00992128
-1.98873e-05
0.00774061
0.00965725
-4.7598e-05
0.00779452
0.00947979
-7.76404e-05
0.00783625
0.00940569
-4.94302e-05
0.00785295
0.00944286
-5.14648e-06
0.0078405
0.00963984
3.6757e-05
0.00781273
0.00994156
5.41363e-05
0.00778055
0.0102542
5.33628e-05
0.0077466
0.0104893
5.15888e-05
0.00771368
0.0105494
4.97827e-05
0.0076829
0.0104404
4.67615e-05
0.00765425
0.0102113
4.34798e-05
0.00763014
0.00992918
3.74659e-05
0.00761237
0.00965069
3.04007e-05
0.00760168
0.00941188
2.33914e-05
0.00759757
0.00922591
1.77397e-05
0.00759844
0.00909058
1.34975e-05
0.00760264
0.00899193
1.07793e-05
0.00760826
0.00891412
9.8851e-06
0.00761415
0.00884076
9.45427e-06
0.00761954
0.0087622
9.70396e-06
0.00762442
0.00867168
9.79891e-06
0.00762875
0.00856942
9.77723e-06
0.00763313
0.0084561
9.20697e-06
0.00763766
0.00833604
8.60685e-06
0.00764267
0.00821176
7.21681e-06
0.00764782
0.00808759
6.57643e-06
0.0076538
0.00796633
4.47959e-06
0.00765985
0.00784957
3.4679e-06
0.00766665
0.00773938
1.27089e-06
0.00767318
0.00763627
2.30737e-07
0.00768051
0.0075383
-2.20335e-06
0.00768742
0.00744657
-2.74683e-06
0.00769508
0.00735858
-4.73153e-06
0.0077025
0.00727528
-4.5576e-06
0.00770865
0.0071934
-4.82861e-06
0.00771314
0.00711603
-4.21482e-06
0.0077151
0.00703638
-4.72895e-06
0.00771556
0.00695928
-4.75875e-06
0.00771295
0.00687383
-4.21559e-06
0.0077104
0.00679156
-4.49621e-06
0.00770515
0.00669945
-3.4849e-06
0.00770232
0.00661415
-5.67724e-06
0.00769668
0.00651501
-4.0912e-06
0.00769498
0.00642698
-6.5559e-06
0.00768598
0.00631194
1.21601e-05
0.00767316
0.00620238
3.57353e-05
0.00759947
0.00601229
0.000211936
0.00565872
0.000571155
0.00771989
0.00989679
-4.51608e-07
0.00771193
0.00992129
-1.9914e-05
0.00774063
0.00965725
-4.76263e-05
0.00779453
0.00947972
-7.75255e-05
0.00783625
0.00940577
-4.94056e-05
0.00785294
0.00944298
-5.41058e-06
0.00784049
0.00963973
3.67799e-05
0.00781273
0.00994148
5.43103e-05
0.00778056
0.0102542
5.34457e-05
0.00774659
0.0104894
5.1486e-05
0.00771368
0.0105495
4.9557e-05
0.00768291
0.0104403
4.67744e-05
0.00765425
0.0102112
4.36733e-05
0.00763015
0.00992921
3.75653e-05
0.00761238
0.00965073
3.0405e-05
0.00760167
0.00941199
2.32907e-05
0.00759756
0.00922594
1.75244e-05
0.00759846
0.00909043
1.35946e-05
0.00760264
0.00899192
1.09072e-05
0.00760827
0.00891409
9.93743e-06
0.00761418
0.00884078
9.52101e-06
0.00761954
0.0087623
9.59411e-06
0.00762442
0.00867173
9.61076e-06
0.00762879
0.00856938
9.64945e-06
0.00763314
0.00845603
9.19114e-06
0.00763767
0.00833591
8.71034e-06
0.0076427
0.00821169
7.28375e-06
0.00764784
0.00808755
6.60177e-06
0.0076538
0.00796634
4.50596e-06
0.00765986
0.00784965
3.3139e-06
0.00766666
0.00773939
1.15231e-06
0.0076732
0.00763634
4.97739e-08
0.00768049
0.00753826
-2.245e-06
0.00768738
0.00744645
-2.6358e-06
0.00769511
0.0073585
-4.62205e-06
0.00770263
0.0072753
-4.58006e-06
0.00770874
0.00719347
-4.82272e-06
0.00771313
0.00711605
-4.22629e-06
0.00771505
0.00703621
-4.62775e-06
0.00771558
0.00695902
-4.71105e-06
0.00771305
0.00687364
-4.09986e-06
0.00771054
0.0067914
-4.26621e-06
0.00770528
0.0066994
-3.3316e-06
0.00770241
0.00661406
-5.3808e-06
0.00769677
0.00651502
-4.03677e-06
0.00769507
0.00642697
-6.55636e-06
0.00768605
0.00631195
1.2285e-05
0.00767315
0.00620241
3.59305e-05
0.00759938
0.00601222
0.000212335
0.0056586
0.000571596
0.00771989
0.00989679
-4.51796e-07
0.00771193
0.0099213
-1.98874e-05
0.00774062
0.00965727
-4.76755e-05
0.00779453
0.00947969
-7.75472e-05
0.00783627
0.00940569
-4.923e-05
0.00785295
0.00944312
-5.46911e-06
0.00784048
0.00963975
3.66304e-05
0.00781273
0.00994139
5.43462e-05
0.00778056
0.0102541
5.35854e-05
0.0077466
0.0104894
5.16362e-05
0.00771368
0.0105496
4.95098e-05
0.00768291
0.0104404
4.65173e-05
0.00765424
0.0102111
4.36755e-05
0.00763014
0.00992914
3.76848e-05
0.00761239
0.0096507
3.04955e-05
0.00760168
0.00941202
2.34124e-05
0.00759755
0.0092261
1.73503e-05
0.00759846
0.00909039
1.34741e-05
0.00760265
0.00899185
1.09582e-05
0.00760825
0.00891406
1.00114e-05
0.00761418
0.0088407
9.6784e-06
0.00761955
0.00876232
9.78939e-06
0.0076244
0.0086718
9.64943e-06
0.00762878
0.00856941
9.64078e-06
0.00763314
0.00845603
9.16313e-06
0.00763765
0.00833586
8.77057e-06
0.0076427
0.00821155
7.54276e-06
0.00764785
0.00808744
6.86777e-06
0.0076538
0.00796621
4.88832e-06
0.00765985
0.00784959
3.62908e-06
0.00766667
0.00773936
1.38153e-06
0.00767324
0.00763633
1.82906e-07
0.00768051
0.00753832
-2.31833e-06
0.00768731
0.00744637
-2.55638e-06
0.00769504
0.00735842
-4.42628e-06
0.00770267
0.00727514
-4.35211e-06
0.00770889
0.00719335
-4.78833e-06
0.00771323
0.00711602
-4.05583e-06
0.00771503
0.00703614
-4.33341e-06
0.00771552
0.00695878
-4.34704e-06
0.00771299
0.00687335
-3.97114e-06
0.00771049
0.00679116
-4.06908e-06
0.00770522
0.00669915
-2.99828e-06
0.00770234
0.00661383
-4.8844e-06
0.0076967
0.00651468
-3.29808e-06
0.00769505
0.00642677
-5.86809e-06
0.00768608
0.00631183
1.28002e-05
0.00767324
0.00620241
3.63448e-05
0.00759948
0.00601245
0.000212641
0.00565888
0.000572032
0.00771989
-4.47266e-07
0.00771193
-1.98916e-05
0.00774062
-4.76699e-05
0.00779452
-7.7595e-05
0.00783626
-4.91689e-05
0.00785296
-5.39535e-06
0.00784049
3.64963e-05
0.00781272
5.42335e-05
0.00778056
5.35915e-05
0.00774659
5.18436e-05
0.00771368
4.96645e-05
0.00768291
4.63896e-05
0.00765425
4.34804e-05
0.00763013
3.77073e-05
0.00761239
3.05174e-05
0.00760169
2.35619e-05
0.00759755
1.74345e-05
0.00759845
1.32731e-05
0.00760266
1.09358e-05
0.00760824
9.96015e-06
0.00761417
9.71097e-06
0.00761957
9.89097e-06
0.00762441
9.76492e-06
0.00762877
9.62303e-06
0.00763316
9.09057e-06
0.00763765
8.60608e-06
0.00764268
7.40133e-06
0.00764785
6.74679e-06
0.0076538
4.80908e-06
0.00765984
3.70257e-06
0.00766664
1.36935e-06
0.00767322
3.02588e-07
0.00768054
-2.29087e-06
0.00768734
-2.76396e-06
0.00769497
-4.44699e-06
0.00770256
-4.26507e-06
0.00770889
-4.60682e-06
0.00771332
-4.24502e-06
0.00771506
-4.38226e-06
0.00771544
-4.13116e-06
0.00771285
-3.68632e-06
0.00771035
-4.08909e-06
0.00770512
-3.24748e-06
0.00770223
-5.26727e-06
0.00769658
-3.58428e-06
0.00769488
-5.84911e-06
0.00768591
1.30188e-05
0.00767305
3.65807e-05
0.00759928
0.000212694
0.000571942
0.0110342
0.0137857
-0.000219091
0.0110703
0.0140926
-5.59415e-05
0.0110417
0.0147788
-1.90859e-05
0.0109713
0.0154763
-7.31033e-06
0.0109015
0.0159404
2.06139e-05
0.0108366
0.0159826
5.98393e-05
0.0107778
0.0155556
9.51965e-05
0.0107252
0.0148394
0.00010659
0.0106906
0.0140642
8.80217e-05
0.0106787
0.0133594
6.38436e-05
0.0106855
0.0128413
4.31902e-05
0.0107139
0.0124932
1.81133e-05
0.0107538
0.0122827
3.25027e-06
0.0107961
0.0121639
-4.83405e-06
0.0108341
0.0120866
-7.48652e-06
0.0108642
0.0120128
-6.55276e-06
0.0108859
0.0119147
-3.90459e-06
0.0109002
0.0117837
-1.04582e-06
0.0109094
0.0116166
1.37724e-06
0.0109161
0.0114267
3.14368e-06
0.0109226
0.01122
3.02835e-06
0.0109299
0.0110154
2.56067e-06
0.010939
0.010814
8.94194e-07
0.0109494
0.0106279
-7.13702e-07
0.0109612
0.0104522
-2.69731e-06
0.0109734
0.0102938
-3.78644e-06
0.0109857
0.0101419
-5.24302e-06
0.0109974
0.0100047
-5.1474e-06
0.0110084
0.00986845
-6.25757e-06
0.0110179
0.00974461
-5.86596e-06
0.0110264
0.00961528
-6.97307e-06
0.0110335
0.00950045
-6.79596e-06
0.0110397
0.00937589
-8.44061e-06
0.0110449
0.0092667
-8.07974e-06
0.0110496
0.00914551
-9.30934e-06
0.0110543
0.00904144
-9.29444e-06
0.0110587
0.00892594
-9.0965e-06
0.0110632
0.00882696
-8.6513e-06
0.0110669
0.00871748
-8.2776e-06
0.0110704
0.00862274
-8.15275e-06
0.0110726
0.0085192
-6.27792e-06
0.0110742
0.00842178
-5.82705e-06
0.0110738
0.00832405
-2.76352e-06
0.0110728
0.00821885
-4.00759e-06
0.0110687
0.00812796
6.72256e-07
0.0110644
0.0080117
-1.6144e-06
0.0110589
0.00792775
1.8599e-05
0.0110599
0.007778
3.54362e-05
0.0110813
0.00768978
0.000191513
0.00732408
0.000603504
0.0110342
0.0137857
-0.000219115
0.0110703
0.0140925
-5.59127e-05
0.0110416
0.0147788
-1.89809e-05
0.0109713
0.0154763
-7.3622e-06
0.0109016
0.0159403
2.03328e-05
0.0108366
0.0159825
5.99088e-05
0.0107778
0.0155555
9.56693e-05
0.0107252
0.0148395
0.000106606
0.0106906
0.0140643
8.79025e-05
0.0106787
0.0133594
6.34259e-05
0.0106855
0.0128413
4.29776e-05
0.0107139
0.012493
1.86e-05
0.0107538
0.0122827
3.5833e-06
0.0107961
0.012164
-4.9632e-06
0.0108341
0.0120867
-7.65832e-06
0.0108642
0.0120128
-6.81136e-06
0.010886
0.0119146
-3.8974e-06
0.0109002
0.0117836
-6.47903e-07
0.0109094
0.0116166
1.47786e-06
0.0109161
0.0114267
3.16503e-06
0.0109225
0.0112201
2.92868e-06
0.0109299
0.0110155
2.26317e-06
0.010939
0.010814
7.90279e-07
0.0109494
0.0106278
-6.01547e-07
0.0109612
0.0104521
-2.45532e-06
0.0109733
0.0102937
-3.50126e-06
0.0109857
0.0101419
-5.18401e-06
0.0109973
0.0100048
-5.1472e-06
0.0110083
0.00986849
-6.55708e-06
0.0110178
0.00974456
-6.0412e-06
0.0110263
0.00961526
-7.25179e-06
0.0110335
0.00950029
-6.80673e-06
0.0110396
0.00937583
-8.29359e-06
0.0110449
0.00926667
-8.02537e-06
0.0110497
0.00914536
-9.36383e-06
0.0110543
0.00904135
-9.17068e-06
0.0110586
0.008926
-9.25825e-06
0.011063
0.00882704
-8.72632e-06
0.0110667
0.00871737
-8.29615e-06
0.0110702
0.00862245
-8.05306e-06
0.0110725
0.00851895
-6.27084e-06
0.0110742
0.00842148
-5.96372e-06
0.0110738
0.00832387
-2.94683e-06
0.0110728
0.00821857
-4.38682e-06
0.0110688
0.00812759
2.34446e-07
0.0110646
0.00801133
-1.9773e-06
0.0110591
0.00792733
1.79741e-05
0.0110602
0.00777761
3.49805e-05
0.0110816
0.00768937
0.000190991
0.0073237
0.000603361
0.0110342
0.0137857
-0.000219121
0.0110703
0.0140925
-5.59579e-05
0.0110417
0.0147788
-1.89592e-05
0.0109713
0.0154764
-7.20178e-06
0.0109016
0.0159404
2.02102e-05
0.0108366
0.0159825
5.9574e-05
0.0107778
0.0155554
9.57933e-05
0.0107252
0.0148394
0.000106941
0.0106905
0.0140644
8.80074e-05
0.0106787
0.0133595
6.3181e-05
0.0106855
0.0128415
4.25956e-05
0.0107139
0.0124929
1.85025e-05
0.0107538
0.0122826
3.98341e-06
0.0107961
0.012164
-4.73747e-06
0.0108341
0.0120867
-7.61478e-06
0.0108642
0.0120129
-6.95674e-06
0.0108859
0.0119146
-4.23958e-06
0.0109002
0.0117835
-5.88727e-07
0.0109095
0.0116165
1.72863e-06
0.0109161
0.0114267
3.2868e-06
0.0109225
0.0112201
3.05588e-06
0.0109299
0.0110156
2.14835e-06
0.0109389
0.010814
4.67718e-07
0.0109494
0.0106278
-8.44098e-07
0.0109612
0.010452
-2.5578e-06
0.0109734
0.0102936
-3.37452e-06
0.0109857
0.0101419
-5.02388e-06
0.0109973
0.0100048
-5.01333e-06
0.0110083
0.00986854
-6.51982e-06
0.0110178
0.00974459
-6.27505e-06
0.0110263
0.0096153
-7.39023e-06
0.0110335
0.00950029
-7.20559e-06
0.0110397
0.00937575
-8.32334e-06
0.0110449
0.00926669
-7.93161e-06
0.0110497
0.00914533
-9.40799e-06
0.0110544
0.0090412
-9.16488e-06
0.0110587
0.00892597
-9.19472e-06
0.0110632
0.00882715
-8.7958e-06
0.0110667
0.00871754
-8.43577e-06
0.0110702
0.00862242
-8.21059e-06
0.0110724
0.00851889
-6.30288e-06
0.0110742
0.00842139
-5.93014e-06
0.0110738
0.00832377
-2.91163e-06
0.0110728
0.00821851
-4.32962e-06
0.0110688
0.00812744
3.79415e-08
0.0110646
0.00801117
-2.20431e-06
0.0110591
0.00792728
1.77883e-05
0.0110602
0.0077776
3.48404e-05
0.0110815
0.00768932
0.000191155
0.00732349
0.000603561
0.0110342
0.0137857
-0.000219097
0.0110703
0.0140926
-5.59571e-05
0.0110417
0.0147788
-1.90084e-05
0.0109713
0.0154763
-7.12003e-06
0.0109016
0.0159405
2.04043e-05
0.0108367
0.0159826
5.93285e-05
0.0107778
0.0155553
9.55531e-05
0.0107251
0.0148393
0.000107077
0.0106905
0.0140643
8.82404e-05
0.0106787
0.0133596
6.33549e-05
0.0106855
0.0128416
4.26303e-05
0.0107139
0.012493
1.79559e-05
0.0107538
0.0122825
3.8819e-06
0.0107961
0.0121639
-4.50686e-06
0.0108341
0.0120867
-7.4705e-06
0.0108642
0.0120129
-6.75971e-06
0.0108859
0.0119148
-4.47889e-06