/*--------------------------------*- C++ -*----------------------------------*\
| =========                 |                                                 |
| \\      /  F ield         | OpenFOAM: The Open Source CFD Toolbox           |
|  \\    /   O peration     | Version:  v2006                                 |
|   \\  /    A nd           | Website:  www.openfoam.com                      |
|    \\/     M anipulation  |                                                 |
\*---------------------------------------------------------------------------*/
FoamFile
{
    version     2.0;
    format      ascii;
    class       volVectorField;
    location    "200";
    object      U:Transformed;
}
// * * * * * * * * * * * * * * * * * * * * * * * * * * * * * * * * * * * * * //

dimensions      [0 1 -1 0 0 0 0];


internalField   nonuniform List<vector> 
1250
(
(0.00351267 -0.129294 0.999771)
(0.00365806 -0.126401 1.00162)
(0.00738912 -0.122095 1.00401)
(0.00797428 -0.117904 1.00682)
(0.00545184 -0.115111 1.01145)
(-0.000840723 -0.114597 1.01295)
(-0.00811712 -0.117129 1.01096)
(-0.0121539 -0.121686 1.00679)
(-0.0113825 -0.126036 1.00236)
(-0.00654419 -0.128012 0.99829)
(2.99902e-06 -0.126144 0.993828)
(0.00537852 -0.121385 0.989173)
(0.00809153 -0.115662 0.985223)
(0.00805281 -0.110781 0.982042)
(0.00596862 -0.107624 0.979981)
(0.00284007 -0.106373 0.978284)
(-0.000330834 -0.106745 0.976978)
(-0.00281309 -0.108169 0.97527)
(-0.00417997 -0.110082 0.973663)
(-0.00444107 -0.111806 0.971321)
(-0.00386316 -0.112998 0.969168)
(-0.00284611 -0.113346 0.966193)
(-0.00175157 -0.113005 0.963676)
(-0.000809959 -0.111969 0.960296)
(-0.000161049 -0.110591 0.957702)
(0.000202652 -0.108933 0.954076)
(0.000293028 -0.107291 0.951618)
(0.000216976 -0.105707 0.94813)
(2.72695e-05 -0.104312 0.946035)
(-0.000166424 -0.103033 0.94299)
(-0.000330522 -0.101973 0.941439)
(-0.000572497 -0.100838 0.938889)
(-0.000511345 -0.100102 0.937837)
(-0.000706418 -0.0991273 0.93579)
(-0.000711212 -0.0983169 0.935064)
(-0.000583702 -0.097265 0.933767)
(-0.00117434 -0.0965041 0.934028)
(-0.00235157 -0.0946247 0.933333)
(-0.00311112 -0.0925793 0.935126)
(-0.00345784 -0.0907695 0.935715)
(-0.00360617 -0.0887799 0.938278)
(-0.00353369 -0.0872732 0.939399)
(-0.00353957 -0.0855821 0.94195)
(-0.00343747 -0.0841742 0.943905)
(-0.00346588 -0.0822862 0.946267)
(-0.00327438 -0.0811429 0.949139)
(-0.00265604 -0.0785754 0.949931)
(-0.0022804 -0.0775894 0.947287)
(0.00242272 -0.0731756 0.943482)
(0.00412622 -0.0685174 0.879664)
(0.00351284 -0.129294 0.999771)
(0.00365801 -0.1264 1.00162)
(0.00738878 -0.122095 1.00401)
(0.00797445 -0.117903 1.00682)
(0.00545183 -0.115111 1.01145)
(-0.000840741 -0.114596 1.01295)
(-0.00811695 -0.117129 1.01096)
(-0.0121538 -0.121686 1.00679)
(-0.0113824 -0.126036 1.00236)
(-0.00654373 -0.128011 0.99829)
(2.67875e-06 -0.126144 0.993828)
(0.00537845 -0.121384 0.989173)
(0.00809176 -0.115662 0.985223)
(0.00805313 -0.110781 0.982041)
(0.00596874 -0.107624 0.979981)
(0.00284011 -0.106373 0.978285)
(-0.000331546 -0.106745 0.976979)
(-0.00281377 -0.108169 0.97527)
(-0.00418021 -0.110081 0.973664)
(-0.00444346 -0.111806 0.971323)
(-0.00386897 -0.112996 0.969172)
(-0.00285548 -0.113345 0.966199)
(-0.00176354 -0.113002 0.963684)
(-0.000826312 -0.111967 0.960306)
(-0.00018314 -0.110587 0.957716)
(0.000176338 -0.108931 0.954093)
(0.000261845 -0.107288 0.951637)
(0.000183309 -0.105706 0.94815)
(-3.03288e-06 -0.10431 0.946055)
(-0.000197329 -0.103032 0.94301)
(-0.000363653 -0.101973 0.941457)
(-0.000588863 -0.100833 0.938908)
(-0.000545343 -0.100109 0.937852)
(-0.000719555 -0.0991178 0.935806)
(-0.000726042 -0.0983018 0.935078)
(-0.000656311 -0.0972684 0.933773)
(-0.00134423 -0.0964888 0.934026)
(-0.00247135 -0.0946181 0.933334)
(-0.00319808 -0.0925802 0.935125)
(-0.00353918 -0.0907665 0.935719)
(-0.00367774 -0.0887787 0.938282)
(-0.00360062 -0.0872719 0.939401)
(-0.00360449 -0.0855806 0.941952)
(-0.00350264 -0.0841766 0.943907)
(-0.00353001 -0.0822876 0.946268)
(-0.00334294 -0.0811448 0.949139)
(-0.00272377 -0.0785836 0.949925)
(-0.00234441 -0.0776006 0.947276)
(0.0023695 -0.0731943 0.94347)
(0.00408915 -0.068536 0.87964)
(0.00351281 -0.129294 0.999771)
(0.00365802 -0.1264 1.00162)
(0.00738887 -0.122095 1.00401)
(0.00797429 -0.117903 1.00682)
(0.00545171 -0.115111 1.01145)
(-0.000840814 -0.114596 1.01295)
(-0.00811702 -0.117129 1.01096)
(-0.0121538 -0.121686 1.00679)
(-0.0113825 -0.126036 1.00236)
(-0.00654357 -0.128011 0.99829)
(2.75217e-06 -0.126144 0.993828)
(0.00537818 -0.121384 0.989173)
(0.00809157 -0.115662 0.985223)
(0.00805293 -0.110781 0.982041)
(0.00596868 -0.107624 0.979981)
(0.00284003 -0.106373 0.978285)
(-0.00033139 -0.106745 0.976979)
(-0.00281412 -0.108169 0.975271)
(-0.00417936 -0.110082 0.973665)
(-0.00444122 -0.111807 0.971324)
(-0.00386649 -0.113 0.969173)
(-0.00285132 -0.113349 0.9662)
(-0.00175902 -0.113009 0.963686)
(-0.000819621 -0.111975 0.960309)
(-0.000175136 -0.110597 0.957719)
(0.000186616 -0.108942 0.954096)
(0.000271678 -0.107302 0.95164)
(0.000194857 -0.105719 0.948153)
(7.15215e-06 -0.104323 0.946058)
(-0.000189067 -0.103044 0.943013)
(-0.000349895 -0.101985 0.941459)
(-0.000585778 -0.100844 0.938911)
(-0.000538673 -0.100115 0.937855)
(-0.000710778 -0.099126 0.935804)
(-0.000736837 -0.0983165 0.935079)
(-0.000645619 -0.0972643 0.933772)
(-0.00129494 -0.0964932 0.93403)
(-0.00240128 -0.0946352 0.933332)
(-0.0031395 -0.0926069 0.935114)
(-0.00348718 -0.0907969 0.935707)
(-0.00363623 -0.088808 0.938265)
(-0.00356429 -0.0872981 0.939384)
(-0.00356818 -0.0856063 0.941931)
(-0.00346425 -0.0842022 0.943884)
(-0.00349317 -0.0823142 0.946239)
(-0.00330474 -0.0811731 0.949109)
(-0.00268048 -0.0786115 0.949884)
(-0.00229857 -0.0776266 0.947229)
(0.0024225 -0.0732159 0.943418)
(0.00413866 -0.0685542 0.87956)
(0.00351275 -0.129294 0.999771)
(0.003658 -0.1264 1.00162)
(0.00738886 -0.122095 1.00401)
(0.00797399 -0.117903 1.00682)
(0.00545207 -0.115111 1.01145)
(-0.000840671 -0.114596 1.01295)
(-0.00811736 -0.117129 1.01096)
(-0.012154 -0.121686 1.00679)
(-0.0113826 -0.126036 1.00236)
(-0.00654378 -0.128012 0.99829)
(3.00177e-06 -0.126144 0.993828)
(0.00537819 -0.121384 0.989173)
(0.00809148 -0.115662 0.985223)
(0.00805279 -0.110781 0.982041)
(0.00596855 -0.107624 0.979981)
(0.00284001 -0.106373 0.978285)
(-0.000331063 -0.106745 0.976978)
(-0.00281428 -0.10817 0.975271)
(-0.00417984 -0.110082 0.973665)
(-0.00444045 -0.111806 0.971324)
(-0.0038654 -0.112999 0.969173)
(-0.00284855 -0.113347 0.9662)
(-0.00175632 -0.113006 0.963685)
(-0.000815954 -0.111971 0.960308)
(-0.000170103 -0.110593 0.957717)
(0.00019266 -0.108936 0.954094)
(0.000279541 -0.107297 0.951637)
(0.000203759 -0.105713 0.948149)
(1.52074e-05 -0.104317 0.946053)
(-0.000181672 -0.103041 0.943009)
(-0.000338689 -0.101979 0.941455)
(-0.000581956 -0.100842 0.938906)
(-0.0005318 -0.100115 0.937855)
(-0.000704693 -0.0991201 0.935798)
(-0.000738726 -0.0983232 0.935074)
(-0.00063658 -0.0972787 0.933765)
(-0.00124701 -0.096491 0.934031)
(-0.00236134 -0.0946233 0.933327)
(-0.0030982 -0.0925967 0.935111)
(-0.00343612 -0.0907943 0.935704)
(-0.00358797 -0.0888065 0.938262)
(-0.00351929 -0.0872981 0.939383)
(-0.00352356 -0.0856046 0.941931)
(-0.00341641 -0.0841989 0.943885)
(-0.00344479 -0.0823117 0.946241)
(-0.00325111 -0.0811691 0.949113)
(-0.00262179 -0.078607 0.949891)
(-0.00223859 -0.0776205 0.947236)
(0.00247944 -0.0732059 0.943426)
(0.00418979 -0.0685465 0.87958)
(0.00351271 -0.129294 0.999771)
(0.00365799 -0.1264 1.00162)
(0.00738898 -0.122095 1.00401)
(0.0079738 -0.117903 1.00682)
(0.00545189 -0.115111 1.01145)
(-0.000840534 -0.114596 1.01295)
(-0.00811725 -0.117129 1.01096)
(-0.0121541 -0.121686 1.00679)
(-0.0113827 -0.126036 1.00236)
(-0.00654426 -0.128012 0.99829)
(2.9747e-06 -0.126145 0.993828)
(0.0053783 -0.121385 0.989173)
(0.00809137 -0.115662 0.985223)
(0.00805268 -0.110781 0.982042)
(0.00596859 -0.107624 0.979981)
(0.00283975 -0.106374 0.978285)
(-0.000330796 -0.106745 0.976978)
(-0.00281335 -0.10817 0.975271)
(-0.00417946 -0.110082 0.973664)
(-0.00443941 -0.111804 0.971323)
(-0.00386303 -0.112997 0.969171)
(-0.00284477 -0.113344 0.966197)
(-0.00175073 -0.113003 0.96368)
(-0.000808745 -0.111966 0.960302)
(-0.000160578 -0.110588 0.957709)
(0.000203012 -0.108929 0.954084)
(0.000292606 -0.107291 0.951626)
(0.000218195 -0.105707 0.948137)
(2.95083e-05 -0.104313 0.946041)
(-0.000167241 -0.103036 0.942997)
(-0.000323203 -0.101972 0.941444)
(-0.00057265 -0.100844 0.938894)
(-0.000513802 -0.100109 0.937845)
(-0.000693289 -0.0991174 0.935788)
(-0.000741409 -0.0983277 0.935064)
(-0.000628315 -0.0972853 0.933759)
(-0.0012045 -0.0964982 0.934029)
(-0.00234841 -0.0946235 0.933327)
(-0.00309146 -0.0925819 0.935113)
(-0.00342683 -0.090777 0.935703)
(-0.00357646 -0.0887901 0.938265)
(-0.00350769 -0.0872841 0.939386)
(-0.00351472 -0.0855913 0.941935)
(-0.00340915 -0.084184 0.94389)
(-0.00343801 -0.0822977 0.946249)
(-0.00324444 -0.0811532 0.949121)
(-0.00261695 -0.0785891 0.949907)
(-0.00223417 -0.0776019 0.947262)
(0.00247381 -0.0731891 0.943453)
(0.00417778 -0.0685299 0.879623)
(-0.00419847 -0.307772 0.998972)
(-0.00722662 -0.311002 1.00333)
(-0.0183279 -0.315978 1.00827)
(-0.0203252 -0.325212 1.01146)
(-0.0124236 -0.332217 1.01458)
(0.00381614 -0.333089 1.01371)
(0.0202952 -0.325446 1.01)
(0.0285479 -0.312852 1.00533)
(0.0268051 -0.300646 1.00128)
(0.0174167 -0.292295 0.998636)
(0.00435762 -0.289322 0.996581)
(-0.00707688 -0.291448 0.994527)
(-0.0139659 -0.296756 0.992594)
(-0.0157399 -0.303338 0.990475)
(-0.0132458 -0.309081 0.988474)
(-0.00821223 -0.31263 0.986218)
(-0.00246881 -0.313405 0.983997)
(0.00248147 -0.31159 0.981406)
(0.00584584 -0.308024 0.978946)
(0.00741815 -0.303475 0.976148)
(0.00750068 -0.298811 0.973802)
(0.00663104 -0.294409 0.97107)
(0.00537389 -0.290591 0.969181)
(0.00414291 -0.287192 0.966642)
(0.00321145 -0.284193 0.965258)
(0.00261189 -0.281253 0.962811)
(0.00231945 -0.278445 0.961792)
(0.00227994 -0.275488 0.959427)
(0.0023498 -0.272607 0.958716)
(0.00250617 -0.269529 0.956528)
(0.00262045 -0.266637 0.956276)
(0.00275838 -0.263527 0.954347)
(0.00277216 -0.260795 0.954667)
(0.002792 -0.257811 0.953161)
(0.0027091 -0.255096 0.9539)
(0.00300648 -0.2526 0.952266)
(0.00265052 -0.250068 0.953104)
(0.00255932 -0.247625 0.951511)
(0.00213226 -0.244467 0.952785)
(0.00184408 -0.241535 0.951742)
(0.00133989 -0.237814 0.953693)
(0.00107864 -0.234579 0.953213)
(0.000673401 -0.230595 0.955533)
(0.000498809 -0.227437 0.95525)
(9.82105e-05 -0.223183 0.95772)
(0.00024891 -0.220218 0.957466)
(0.000927263 -0.214809 0.959817)
(0.00221592 -0.21167 0.955966)
(0.010769 -0.201447 0.954003)
(0.0199854 -0.187846 0.897748)
(-0.0041985 -0.307772 0.998973)
(-0.00722643 -0.311002 1.00333)
(-0.0183295 -0.315979 1.00827)
(-0.0203259 -0.325212 1.01146)
(-0.0124229 -0.332215 1.01458)
(0.00382074 -0.333087 1.01371)
(0.0202943 -0.325448 1.01)
(0.0285448 -0.312855 1.00533)
(0.0268057 -0.300648 1.00128)
(0.0174149 -0.292294 0.998636)
(0.00435597 -0.289318 0.996581)
(-0.00707522 -0.291447 0.994526)
(-0.0139632 -0.296758 0.992594)
(-0.0157401 -0.30334 0.990476)
(-0.0132469 -0.30908 0.988474)
(-0.00821327 -0.312628 0.986217)
(-0.00246824 -0.313401 0.983998)
(0.00248015 -0.311591 0.981405)
(0.0058438 -0.308021 0.978946)
(0.00741263 -0.30347 0.97615)
(0.00748897 -0.298802 0.973804)
(0.00661743 -0.294392 0.971073)
(0.00535675 -0.290569 0.969189)
(0.00412063 -0.287165 0.966648)
(0.00318356 -0.28416 0.965268)
(0.00258049 -0.281219 0.962825)
(0.00228107 -0.278406 0.961807)
(0.00224029 -0.275446 0.959443)
(0.00231252 -0.272564 0.958735)
(0.00247058 -0.269486 0.956546)
(0.00258992 -0.266599 0.956295)
(0.00272359 -0.263493 0.954367)
(0.00273519 -0.260762 0.954681)
(0.00278757 -0.25778 0.953178)
(0.00270824 -0.255094 0.953925)
(0.00297316 -0.252605 0.952293)
(0.00259051 -0.250043 0.953123)
(0.00247881 -0.247588 0.951532)
(0.00202839 -0.244422 0.95282)
(0.00171032 -0.241473 0.951771)
(0.00119872 -0.237734 0.953711)
(0.000938478 -0.234493 0.953226)
(0.000529389 -0.230513 0.955534)
(0.000349172 -0.227351 0.955257)
(-6.0991e-05 -0.223098 0.957707)
(8.39624e-05 -0.220131 0.957449)
(0.000774011 -0.214725 0.959803)
(0.00207393 -0.21161 0.955963)
(0.0106481 -0.201429 0.953996)
(0.0199053 -0.187878 0.897736)
(-0.00419861 -0.307772 0.998972)
(-0.00722647 -0.311002 1.00333)
(-0.0183276 -0.315978 1.00827)
(-0.0203272 -0.325214 1.01146)
(-0.0124254 -0.332216 1.01458)
(0.00382194 -0.333084 1.01371)
(0.0202985 -0.325445 1.01)
(0.0285456 -0.312855 1.00533)
(0.0268045 -0.300649 1.00128)
(0.017414 -0.292296 0.998637)
(0.00435446 -0.289317 0.996581)
(-0.00707616 -0.291444 0.994526)
(-0.013962 -0.296758 0.992594)
(-0.015738 -0.303341 0.990476)
(-0.0132473 -0.309082 0.988475)
(-0.00821519 -0.31263 0.986217)
(-0.00246857 -0.313399 0.983998)
(0.00248153 -0.31159 0.981407)
(0.00584396 -0.308024 0.978945)
(0.00741735 -0.303472 0.976151)
(0.00749028 -0.29881 0.973807)
(0.00661814 -0.294402 0.971074)
(0.00535834 -0.290581 0.969192)
(0.00412346 -0.28718 0.966653)
(0.00318675 -0.284178 0.96527)
(0.00258689 -0.281241 0.962828)
(0.00228682 -0.278437 0.961813)
(0.0022437 -0.275479 0.959447)
(0.00231601 -0.2726 0.958739)
(0.00247424 -0.269524 0.956552)
(0.00259265 -0.266629 0.956297)
(0.00272704 -0.26352 0.954372)
(0.00274452 -0.260787 0.954681)
(0.00278636 -0.257807 0.95318)
(0.00270151 -0.255113 0.953933)
(0.00297757 -0.252609 0.952307)
(0.00258845 -0.250025 0.953119)
(0.0024839 -0.247575 0.951529)
(0.00204012 -0.244442 0.952816)
(0.00172193 -0.241519 0.951775)
(0.00120949 -0.237788 0.953709)
(0.000954513 -0.23455 0.953233)
(0.000551429 -0.230567 0.955547)
(0.000377511 -0.227414 0.955266)
(-3.31696e-05 -0.223171 0.957711)
(0.000111229 -0.22021 0.957451)
(0.000806883 -0.214811 0.9598)
(0.00212206 -0.211689 0.955957)
(0.0107109 -0.201494 0.953997)
(0.0199705 -0.187924 0.897743)
(-0.00419857 -0.307772 0.998972)
(-0.00722676 -0.311002 1.00333)
(-0.018327 -0.315978 1.00827)
(-0.0203258 -0.325214 1.01146)
(-0.0124252 -0.332219 1.01458)
(0.00381819 -0.333085 1.01371)
(0.0202977 -0.325443 1.01)
(0.0285472 -0.312854 1.00533)
(0.0268053 -0.30065 1.00128)
(0.017415 -0.292298 0.998637)
(0.00435568 -0.289321 0.996582)
(-0.00707878 -0.291444 0.994526)
(-0.0139633 -0.296755 0.992593)
(-0.0157374 -0.303341 0.990476)
(-0.0132454 -0.309083 0.988476)
(-0.00821397 -0.312633 0.986217)
(-0.00246959 -0.3134 0.983997)
(0.00248178 -0.311588 0.981407)
(0.00584251 -0.308025 0.978946)
(0.00741909 -0.303474 0.976149)
(0.00749573 -0.298811 0.973808)
(0.00662416 -0.294405 0.971074)
(0.00536356 -0.290582 0.969191)
(0.00413034 -0.28718 0.966655)
(0.00319262 -0.284177 0.965271)
(0.00259623 -0.281234 0.962826)
(0.00230197 -0.278427 0.961816)
(0.00225913 -0.275467 0.959448)
(0.00232915 -0.272586 0.958739)
(0.00248387 -0.26951 0.956554)
(0.00260787 -0.266614 0.956301)
(0.00273371 -0.263513 0.95437)
(0.00274308 -0.260775 0.954686)
(0.00279106 -0.257782 0.953179)
(0.00272228 -0.255095 0.953934)
(0.0029824 -0.252614 0.952306)
(0.00258527 -0.250048 0.953122)
(0.00248986 -0.24758 0.951514)
(0.00206406 -0.244434 0.952812)
(0.00175366 -0.241516 0.95178)
(0.00123581 -0.237781 0.953708)
(0.000975867 -0.234536 0.953218)
(0.000575207 -0.230549 0.955524)
(0.000406327 -0.227393 0.955236)
(3.85319e-06 -0.223147 0.9577)
(0.000154688 -0.220187 0.957447)
(0.000852303 -0.214784 0.959806)
(0.00217101 -0.21165 0.955962)
(0.0107761 -0.201436 0.954008)
(0.0200502 -0.187865 0.897757)
(-0.00419851 -0.307771 0.998973)
(-0.00722678 -0.311002 1.00333)
(-0.0183281 -0.315978 1.00827)
(-0.0203258 -0.325212 1.01146)
(-0.0124244 -0.332219 1.01458)
(0.00381684 -0.333087 1.01371)
(0.0202977 -0.325443 1.01)
(0.0285462 -0.312852 1.00533)
(0.0268051 -0.300648 1.00128)
(0.017416 -0.292297 0.998637)
(0.00435691 -0.289322 0.996582)
(-0.00707945 -0.291446 0.994527)
(-0.0139657 -0.296755 0.992593)
(-0.0157381 -0.303338 0.990475)
(-0.0132448 -0.309081 0.988476)
(-0.00821374 -0.312632 0.986218)
(-0.00246984 -0.313403 0.983997)
(0.0024836 -0.311586 0.981407)
(0.0058445 -0.308021 0.978946)
(0.00741817 -0.303466 0.976149)
(0.00749912 -0.298802 0.973806)
(0.00662817 -0.294396 0.971074)
(0.00536973 -0.290573 0.969186)
(0.00413917 -0.287167 0.96665)
(0.00320228 -0.284163 0.965266)
(0.00260122 -0.28122 0.962819)
(0.0023112 -0.278413 0.961805)
(0.00227101 -0.275458 0.95944)
(0.0023409 -0.272577 0.958726)
(0.00250047 -0.269504 0.956542)
(0.00262199 -0.266614 0.956286)
(0.00274367 -0.263512 0.954358)
(0.00276915 -0.26077 0.954677)
(0.00280565 -0.25779 0.953169)
(0.00271051 -0.255105 0.953914)
(0.00297951 -0.252609 0.952288)
(0.00259474 -0.250043 0.953126)
(0.00248957 -0.247568 0.951503)
(0.00208261 -0.244396 0.952791)
(0.0018069 -0.241486 0.951767)
(0.00130101 -0.237767 0.953726)
(0.0010402 -0.234532 0.95325)
(0.000633421 -0.230548 0.955561)
(0.000466861 -0.227391 0.955271)
(7.02985e-05 -0.223144 0.957722)
(0.000219896 -0.220187 0.957456)
(0.000918733 -0.214804 0.959805)
(0.00223092 -0.211687 0.955968)
(0.0108195 -0.201499 0.954012)
(0.0200946 -0.187931 0.89777)
(-0.000991703 -0.501008 0.999439)
(0.0171276 -0.502248 0.999391)
(0.0375073 -0.488888 0.998191)
(0.0349843 -0.479894 1.00514)
(0.0202705 -0.476135 1.01191)
(-0.00412446 -0.47804 1.01654)
(-0.02683 -0.488009 1.01665)
(-0.0383756 -0.503269 1.0135)
(-0.037542 -0.519092 1.00925)
(-0.0256201 -0.530998 1.00499)
(-0.00755534 -0.534054 1.00054)
(0.00886574 -0.528535 0.996407)
(0.0203362 -0.516925 0.992573)
(0.0257246 -0.502641 0.989062)
(0.0256954 -0.488547 0.986307)
(0.022019 -0.476458 0.984438)
(0.0166555 -0.467058 0.983538)
(0.0113167 -0.460197 0.983325)
(0.00715391 -0.455197 0.9838)
(0.00461319 -0.451263 0.984366)
(0.00366324 -0.447547 0.985318)
(0.0039124 -0.443577 0.985831)
(0.00484187 -0.439005 0.986801)
(0.00602561 -0.433828 0.987012)
(0.00712634 -0.428093 0.988016)
(0.00797639 -0.422012 0.988048)
(0.00848966 -0.415717 0.989291)
(0.0086814 -0.409432 0.989227)
(0.00858927 -0.403291 0.990743)
(0.00829991 -0.397385 0.990645)
(0.00792773 -0.391806 0.992446)
(0.00746405 -0.386587 0.992245)
(0.00708896 -0.381633 0.99431)
(0.00668723 -0.37698 0.993983)
(0.00643009 -0.372518 0.996226)
(0.00617524 -0.368295 0.995863)
(0.00605077 -0.364144 0.998252)
(0.00598805 -0.360247 0.997389)
(0.00590038 -0.356229 0.999475)
(0.00611664 -0.352327 0.997808)
(0.00610242 -0.348003 0.999562)
(0.00636349 -0.34384 0.997154)
(0.0062331 -0.339189 0.998806)
(0.00643273 -0.334878 0.995942)
(0.00631563 -0.329854 0.997843)
(0.00652301 -0.325406 0.994756)
(0.0074744 -0.319588 0.997034)
(0.00885582 -0.314044 0.992412)
(0.0186751 -0.304405 0.994874)
(0.0353988 -0.286464 0.96155)
(-0.000991809 -0.501008 0.99944)
(0.0171297 -0.502247 0.99939)
(0.0375074 -0.488881 0.998193)
(0.0349818 -0.479901 1.00514)
(0.0202618 -0.476145 1.01191)
(-0.0041212 -0.478026 1.01654)
(-0.0268181 -0.488003 1.01665)
(-0.0383766 -0.503275 1.0135)
(-0.0375466 -0.519099 1.00925)
(-0.0256277 -0.530997 1.00498)
(-0.00755561 -0.534048 1.00054)
(0.00887526 -0.528533 0.996407)
(0.0203401 -0.51693 0.992571)
(0.0257207 -0.502646 0.989063)
(0.0256914 -0.488548 0.986308)
(0.0220114 -0.476458 0.984436)
(0.0166608 -0.467047 0.983538)
(0.0113276 -0.460198 0.983328)
(0.00715092 -0.455199 0.983798)
(0.00461443 -0.451261 0.984364)
(0.00365613 -0.447544 0.985321)
(0.0039013 -0.443566 0.985827)
(0.00483781 -0.438985 0.986801)
(0.00602413 -0.433809 0.987015)
(0.0071236 -0.428069 0.988015)
(0.00797272 -0.421992 0.988046)
(0.00847852 -0.415697 0.989296)
(0.00866889 -0.40941 0.989227)
(0.00857275 -0.40327 0.990745)
(0.00828415 -0.397359 0.990648)
(0.00791617 -0.391781 0.992451)
(0.00745331 -0.386563 0.99225)
(0.0070839 -0.381607 0.994308)
(0.00668758 -0.376962 0.99398)
(0.00642215 -0.372503 0.99624)
(0.00615766 -0.368294 0.995874)
(0.006041 -0.364145 0.998254)
(0.00600754 -0.360232 0.997383)
(0.00591178 -0.356201 0.999476)
(0.0060951 -0.352298 0.997833)
(0.00606662 -0.347963 0.999596)
(0.00629757 -0.343802 0.99719)
(0.00615952 -0.339137 0.99884)
(0.00633803 -0.334817 0.995972)
(0.00623864 -0.329788 0.997871)
(0.00645204 -0.325323 0.994784)
(0.00739768 -0.319495 0.997062)
(0.00879014 -0.313943 0.99244)
(0.0186307 -0.304327 0.994901)
(0.035382 -0.286443 0.961555)
(-0.000991908 -0.501008 0.99944)
(0.0171272 -0.502249 0.99939)
(0.0375105 -0.48888 0.998193)
(0.0349846 -0.479893 1.00514)
(0.0202624 -0.476152 1.01191)
(-0.00413426 -0.478032 1.01654)
(-0.0268145 -0.487996 1.01665)
(-0.0383671 -0.503272 1.0135)
(-0.0375434 -0.519101 1.00925)
(-0.0256352 -0.531004 1.00498)
(-0.0075665 -0.534048 1.00054)
(0.00887861 -0.528525 0.996408)
(0.0203485 -0.516926 0.99257)
(0.0257241 -0.502649 0.989063)
(0.0256917 -0.48855 0.98631)
(0.0220037 -0.476463 0.984436)
(0.0166518 -0.467044 0.983534)
(0.0113342 -0.46019 0.98333)
(0.00715603 -0.455202 0.9838)
(0.0046173 -0.451261 0.984361)
(0.00366129 -0.44755 0.985325)
(0.00389593 -0.443575 0.985829)
(0.00483201 -0.43899 0.986798)
(0.00602202 -0.433813 0.987018)
(0.00712575 -0.428076 0.98802)
(0.00798032 -0.421997 0.988044)
(0.00848399 -0.415711 0.989299)
(0.00867094 -0.409426 0.989231)
(0.00857446 -0.403291 0.990745)
(0.00827688 -0.397382 0.990649)
(0.00791105 -0.391802 0.992451)
(0.00744585 -0.386582 0.992255)
(0.0070841 -0.381619 0.994308)
(0.00669445 -0.376975 0.993973)
(0.00643582 -0.372523 0.996235)
(0.0061582 -0.368306 0.995889)
(0.00603578 -0.364165 0.998271)
(0.00601762 -0.360241 0.997389)
(0.00592964 -0.356206 0.999467)
(0.00610457 -0.352304 0.997829)
(0.00609128 -0.347981 0.999604)
(0.00633904 -0.343811 0.997209)
(0.00620033 -0.339149 0.998857)
(0.00638858 -0.334827 0.995987)
(0.00625573 -0.329826 0.997882)
(0.00646513 -0.325377 0.994796)
(0.00741276 -0.319559 0.997073)
(0.0088146 -0.31402 0.992445)
(0.0186539 -0.304402 0.994895)
(0.0353955 -0.286512 0.961541)
(-0.000991931 -0.501008 0.999439)
(0.017128 -0.502247 0.999391)
(0.0375062 -0.488884 0.99819)
(0.0349843 -0.479895 1.00514)
(0.0202713 -0.476147 1.01192)
(-0.00413713 -0.478038 1.01654)
(-0.0268235 -0.487995 1.01665)
(-0.0383664 -0.503268 1.0135)
(-0.037537 -0.5191 1.00925)
(-0.0256324 -0.531012 1.00499)
(-0.00756872 -0.534056 1.00054)
(0.00886952 -0.528521 0.996408)
(0.0203493 -0.51692 0.99257)
(0.0257287 -0.502648 0.989061)
(0.0256969 -0.488551 0.98631)
(0.0220088 -0.476468 0.984439)
(0.0166415 -0.467052 0.983533)
(0.0113311 -0.460184 0.983326)
(0.00715811 -0.455199 0.983803)
(0.00461915 -0.45126 0.984359)
(0.00366853 -0.447549 0.985323)
(0.00390452 -0.44358 0.985833)
(0.00483272 -0.438995 0.986795)
(0.00602481 -0.433811 0.987014)
(0.00712693 -0.428072 0.988022)
(0.00798612 -0.421988 0.988042)
(0.0084998 -0.415697 0.989295)
(0.00868601 -0.409413 0.989234)
(0.00859626 -0.403276 0.990744)
(0.00829558 -0.397369 0.990649)
(0.00792393 -0.391786 0.992449)
(0.00745366 -0.386573 0.992257)
(0.007081 -0.381607 0.994315)
(0.00669747 -0.376954 0.993971)
(0.00644312 -0.372503 0.996219)
(0.00618103 -0.368289 0.995884)
(0.00602832 -0.364153 0.998288)
(0.0060249 -0.360236 0.997409)
(0.00595332 -0.356188 0.999473)
(0.00612217 -0.352279 0.99782)
(0.00607498 -0.347964 0.999597)
(0.00633356 -0.343806 0.9972)
(0.00620351 -0.339152 0.998852)
(0.00641502 -0.334828 0.995976)
(0.00629011 -0.329805 0.997875)
(0.00650786 -0.325342 0.994788)
(0.00743379 -0.319513 0.997076)
(0.00882952 -0.313961 0.99245)
(0.0186785 -0.30431 0.994913)
(0.0354356 -0.286378 0.961544)
(-0.000991987 -0.501008 0.999439)
(0.0171281 -0.502249 0.999391)
(0.0375086 -0.48888 0.998192)
(0.0349822 -0.479892 1.00514)
(0.0202718 -0.476145 1.01191)
(-0.00413397 -0.478045 1.01654)
(-0.0268274 -0.487997 1.01665)
(-0.0383698 -0.503263 1.0135)
(-0.0375364 -0.519092 1.00925)
(-0.025625 -0.531008 1.00499)
(-0.00756272 -0.534059 1.00054)
(0.00886347 -0.52853 0.996408)
(0.0203413 -0.516918 0.992572)
(0.025729 -0.502643 0.98906)
(0.025697 -0.488548 0.986308)
(0.0220168 -0.476465 0.98444)
(0.0166422 -0.467059 0.983536)
(0.0113217 -0.460188 0.983324)
(0.00715992 -0.455193 0.983803)
(0.0046181 -0.451256 0.984362)
(0.00367188 -0.447538 0.985319)
(0.00391106 -0.44357 0.985835)
(0.0048376 -0.438991 0.986799)
(0.00602397 -0.433808 0.987012)
(0.00712686 -0.428066 0.988022)
(0.00798121 -0.421982 0.988047)
(0.00849689 -0.415687 0.989292)
(0.00868367 -0.409405 0.989233)
(0.0085951 -0.403268 0.990745)
(0.00830057 -0.397367 0.990648)
(0.00792612 -0.391791 0.992447)
(0.00746538 -0.386571 0.992251)
(0.00708483 -0.381616 0.994317)
(0.00668861 -0.376962 0.993978)
(0.00644739 -0.372504 0.996219)
(0.00619653 -0.368285 0.995868)
(0.00604916 -0.364142 0.998277)
(0.00600738 -0.360233 0.997419)
(0.00596322 -0.356183 0.999485)
(0.00616518 -0.352254 0.997817)
(0.00611083 -0.347922 0.999579)
(0.00633899 -0.343762 0.99718)
(0.00618848 -0.339105 0.998838)
(0.00638839 -0.334791 0.995964)
(0.00627138 -0.329772 0.997859)
(0.00651365 -0.325324 0.994769)
(0.00746775 -0.319509 0.997051)
(0.00885591 -0.313989 0.992433)
(0.0186811 -0.304416 0.994879)
(0.0354301 -0.286564 0.961537)
(-0.0132966 -0.697879 1.00365)
(-0.0692759 -0.713412 1.02685)
(-0.095784 -0.748148 1.024)
(-0.0857188 -0.783459 1.01814)
(-0.0524873 -0.806957 1.01095)
(-0.0076497 -0.809095 1.00488)
(0.0320757 -0.78747 0.999021)
(0.0542978 -0.751213 0.994009)
(0.0595367 -0.711976 0.989491)
(0.0498864 -0.676301 0.987425)
(0.0307638 -0.650073 0.987207)
(0.0117783 -0.632448 0.988833)
(-0.0044747 -0.621788 0.992166)
(-0.0155952 -0.615773 0.996289)
(-0.0209128 -0.611866 1.00003)
(-0.0214032 -0.608129 1.00334)
(-0.0186373 -0.603164 1.00565)
(-0.0143947 -0.596529 1.00736)
(-0.01012 -0.588066 1.00833)
(-0.00674553 -0.578455 1.00905)
(-0.00478255 -0.567993 1.0096)
(-0.00414108 -0.557637 1.01018)
(-0.00456755 -0.547449 1.01101)
(-0.00566469 -0.538024 1.01177)
(-0.00704736 -0.529132 1.01302)
(-0.00839338 -0.521107 1.01386)
(-0.00958807 -0.513419 1.01535)
(-0.0104024 -0.506473 1.01606)
(-0.0110152 -0.499579 1.01761)
(-0.0112294 -0.49331 1.01799)
(-0.0114124 -0.486766 1.01947)
(-0.011226 -0.480952 1.01945)
(-0.0112468 -0.474644 1.02089)
(-0.0109315 -0.469118 1.02049)
(-0.0108357 -0.462986 1.02197)
(-0.0106385 -0.457711 1.02128)
(-0.0104494 -0.451863 1.02291)
(-0.0103521 -0.446852 1.02203)
(-0.0101645 -0.441317 1.0238)
(-0.0103088 -0.436517 1.02267)
(-0.00995346 -0.431268 1.02448)
(-0.0102104 -0.426331 1.02305)
(-0.00966577 -0.42138 1.02479)
(-0.0101352 -0.416058 1.023)
(-0.00955164 -0.411472 1.02455)
(-0.0101213 -0.405601 1.02231)
(-0.00879809 -0.401357 1.02371)
(-0.00763107 -0.393772 1.02133)
(0.000560025 -0.389313 1.02432)
(0.0207852 -0.370776 1.02278)
(-0.013297 -0.697878 1.00365)
(-0.0692792 -0.713412 1.02685)
(-0.0957776 -0.748152 1.024)
(-0.0857168 -0.783458 1.01814)
(-0.0525015 -0.806953 1.01095)
(-0.00764793 -0.809092 1.00489)
(0.032091 -0.787475 0.999021)
(0.0543035 -0.751219 0.994006)
(0.0595359 -0.711978 0.98949)
(0.0498714 -0.676295 0.987424)
(0.0307607 -0.650066 0.987209)
(0.01179 -0.632444 0.988838)
(-0.0044651 -0.621795 0.992165)
(-0.0156027 -0.615779 0.996285)
(-0.0209169 -0.611867 1.00003)
(-0.0214121 -0.608127 1.00334)
(-0.0186382 -0.603157 1.00565)
(-0.01438 -0.596528 1.00737)
(-0.0101194 -0.588071 1.00833)
(-0.00674543 -0.578456 1.00904)
(-0.00478693 -0.567995 1.0096)
(-0.00414776 -0.557634 1.01017)
(-0.00457071 -0.547437 1.01101)
(-0.00565676 -0.538011 1.01177)
(-0.00703487 -0.529116 1.01302)
(-0.00838422 -0.521099 1.01386)
(-0.00958494 -0.513415 1.01535)
(-0.010399 -0.50647 1.01605)
(-0.0110211 -0.499569 1.0176)
(-0.0112346 -0.493298 1.01798)
(-0.0114124 -0.486749 1.01946)
(-0.0112265 -0.480935 1.01945)
(-0.0112422 -0.474631 1.02089)
(-0.0109234 -0.469103 1.02048)
(-0.0108443 -0.462966 1.02197)
(-0.0106298 -0.457701 1.02128)
(-0.0104557 -0.451858 1.02291)
(-0.0103676 -0.446849 1.02202)
(-0.0101723 -0.441301 1.02378)
(-0.0103071 -0.436507 1.02265)
(-0.00994853 -0.431271 1.02446)
(-0.0102105 -0.426337 1.02304)
(-0.00966695 -0.42139 1.02479)
(-0.0101478 -0.416058 1.02299)
(-0.00959132 -0.41145 1.02456)
(-0.0101638 -0.405558 1.02233)
(-0.00886392 -0.401308 1.02373)
(-0.00769693 -0.393723 1.02136)
(0.000484311 -0.389256 1.02435)
(0.0207478 -0.370746 1.0228)
(-0.0132964 -0.69788 1.00365)
(-0.0692801 -0.713409 1.02685)
(-0.0957828 -0.748151 1.024)
(-0.0857084 -0.783463 1.01813)
(-0.0525032 -0.806952 1.01095)
(-0.00766193 -0.809085 1.00489)
(0.0320893 -0.787468 0.999022)
(0.05431 -0.751222 0.994005)
(0.0595416 -0.711983 0.989489)
(0.0498722 -0.676296 0.987422)
(0.0307434 -0.650072 0.987209)
(0.011788 -0.632434 0.988841)
(-0.00445208 -0.621789 0.992168)
(-0.0155955 -0.615782 0.996285)
(-0.0209178 -0.611871 1.00003)
(-0.0214151 -0.608131 1.00334)
(-0.018651 -0.603155 1.00565)
(-0.0143762 -0.596521 1.00736)
(-0.0101106 -0.58807 1.00833)
(-0.00674293 -0.578457 1.00904)
(-0.00478508 -0.567996 1.0096)
(-0.00415299 -0.557642 1.01017)
(-0.00458356 -0.54744 1.01101)
(-0.00566666 -0.538014 1.01177)
(-0.00703759 -0.529117 1.01302)
(-0.00837901 -0.5211 1.01386)
(-0.00958229 -0.513418 1.01536)
(-0.0103974 -0.506478 1.01605)
(-0.0110198 -0.499578 1.0176)
(-0.0112422 -0.493306 1.01798)
(-0.0114206 -0.486761 1.01946)
(-0.0112372 -0.480937 1.01945)
(-0.011246 -0.474639 1.0209)
(-0.0109192 -0.469113 1.02048)
(-0.0108468 -0.462969 1.02197)
(-0.0106369 -0.457704 1.02129)
(-0.0104504 -0.451867 1.02291)
(-0.0103794 -0.446857 1.02203)
(-0.0101825 -0.441301 1.02379)
(-0.0103152 -0.436487 1.02265)
(-0.00995911 -0.431251 1.02447)
(-0.0102206 -0.426321 1.02304)
(-0.00968571 -0.421384 1.02479)
(-0.0101568 -0.416054 1.02299)
(-0.0096048 -0.41144 1.02456)
(-0.010179 -0.405558 1.02233)
(-0.00886583 -0.401305 1.02374)
(-0.00769334 -0.393734 1.02136)
(0.000502911 -0.389267 1.02435)
(0.0207725 -0.37077 1.02279)
(-0.0132968 -0.697879 1.00365)
(-0.0692783 -0.713412 1.02685)
(-0.0957839 -0.748149 1.024)
(-0.0857094 -0.783463 1.01813)
(-0.0524951 -0.80696 1.01095)
(-0.00766566 -0.809088 1.00489)
(0.0320836 -0.787461 0.999025)
(0.0543118 -0.751217 0.994005)
(0.0595488 -0.711982 0.989485)
(0.0498816 -0.676302 0.987423)
(0.0307372 -0.650082 0.987208)
(0.0117725 -0.632435 0.988838)
(-0.00445109 -0.621779 0.992171)
(-0.0155874 -0.615778 0.996287)
(-0.0209139 -0.61187 1.00003)
(-0.0214089 -0.608135 1.00334)
(-0.018659 -0.603161 1.00565)