/*--------------------------------*- C++ -*----------------------------------*\
| =========                 |                                                 |
| \\      /  F ield         | OpenFOAM: The Open Source CFD Toolbox           |
|  \\    /   O peration     | Version:  v2006                                 |
|   \\  /    A nd           | Website:  www.openfoam.com                      |
|    \\/     M anipulation  |                                                 |
\*---------------------------------------------------------------------------*/
FoamFile
{
    version     2.0;
    format      ascii;
    class       volScalarField;
    location    "269";
    object      k;
}
// * * * * * * * * * * * * * * * * * * * * * * * * * * * * * * * * * * * * * //

dimensions      [0 2 -2 0 0 0 0];


internalField   nonuniform List<scalar> 
26820
(
0.0472125
0.0464429
0.045782
0.0452136
0.0447236
0.0443002
0.043934
0.0472118
0.0464411
0.0457792
0.0452099
0.0447192
0.0442953
0.0439283
0.0472106
0.0464374
0.0457736
0.0452026
0.0447104
0.0442854
0.0439171
0.0472087
0.0464319
0.0457651
0.0451917
0.0446974
0.0442708
0.0439004
0.0472061
0.0464247
0.0457539
0.0451772
0.04468
0.0442512
0.0438781
0.047203
0.0464156
0.0457399
0.045159
0.0446584
0.0442269
0.0438504
0.0471992
0.0464047
0.0457231
0.0451374
0.0446325
0.0441978
0.0438172
0.0471949
0.0463921
0.0457036
0.0451122
0.0446024
0.044164
0.0437787
0.0471899
0.0463778
0.0456815
0.0450836
0.0445683
0.0441256
0.043735
0.0471843
0.0463618
0.0456567
0.0450516
0.0445301
0.0440827
0.0436861
0.0471781
0.046344
0.0456294
0.0450162
0.0444879
0.0440354
0.0436322
0.0471714
0.0463247
0.0455995
0.0449776
0.0444419
0.0439837
0.0435734
0.0471641
0.0463037
0.0455671
0.0449359
0.0443921
0.0439277
0.0435098
0.0471563
0.0462811
0.0455324
0.044891
0.0443386
0.0438677
0.0434416
0.0471479
0.046257
0.0454952
0.0448431
0.0442815
0.0438037
0.0433689
0.047139
0.0462314
0.0454558
0.0447923
0.0442211
0.0437358
0.0432919
0.0471296
0.0462044
0.0454142
0.0447386
0.0441572
0.0436642
0.0432107
0.0471197
0.046176
0.0453705
0.0446822
0.0440902
0.0435889
0.0431254
0.0471093
0.0461461
0.0453246
0.0446231
0.0440202
0.0435099
0.0430367
0.0470985
0.046115
0.0452766
0.044561
0.0439466
0.0434255
0.0429463
0.0436005
0.0432865
0.0430089
0.042765
0.0425531
0.0423721
0.0422225
0.0421059
0.0420252
0.0419877
0.0419922
0.0420274
0.0420915
0.0421851
0.0423099
0.0424682
0.0426629
0.042898
0.0431778
0.0435082
0.0438954
0.0443515
0.0448675
0.0454031
0.045955
0.0465302
0.0471407
0.0478035
0.0485438
0.0493998
0.0504327
0.0517529
0.0535579
0.0563488
0.0609964
0.0676208
0.077466
0.0800978
0.0361529
0.00472425
0.0435952
0.0432816
0.0430044
0.042761
0.0425494
0.0423688
0.0422194
0.042103
0.0420224
0.041985
0.0419897
0.0420252
0.0420895
0.0421832
0.0423081
0.0424665
0.0426614
0.0428965
0.0431763
0.0435067
0.0438939
0.0443498
0.0448666
0.0454032
0.0459558
0.0465317
0.0471426
0.0478059
0.0485466
0.0494028
0.0504359
0.0517561
0.0535605
0.0563488
0.0609787
0.0675797
0.0774013
0.0800633
0.0369895
0.00751085
0.0435846
0.0432719
0.0429957
0.0427532
0.0425424
0.0423625
0.0422138
0.0420979
0.0420178
0.0419808
0.0419861
0.042022
0.0420868
0.042181
0.0423064
0.0424652
0.0426605
0.0428959
0.0431762
0.043507
0.0438945
0.0443507
0.0448684
0.045406
0.0459597
0.0465365
0.0471484
0.0478126
0.0485542
0.0494114
0.0504458
0.0517675
0.0535737
0.0563667
0.0609901
0.0675775
0.0773761
0.0800421
0.0382267
0.0116591
0.0435687
0.0432575
0.0429828
0.0427416
0.042532
0.0423532
0.0422055
0.0420905
0.0420114
0.0419752
0.0419813
0.0420181
0.0420837
0.0421787
0.0423047
0.0424643
0.0426603
0.0428965
0.0431775
0.043509
0.0438974
0.0443543
0.0448733
0.0454123
0.0459673
0.0465454
0.0471587
0.0478243
0.0485675
0.0494267
0.0504635
0.0517887
0.0535998
0.0564053
0.0610334
0.0676229
0.0774076
0.0800309
0.0395615
0.0165323
0.0435476
0.0432383
0.0429656
0.0427262
0.0425182
0.0423409
0.0421946
0.0420808
0.0420028
0.0419678
0.0419751
0.042013
0.0420797
0.0421757
0.0423027
0.0424632
0.0426602
0.0428974
0.0431793
0.0435119
0.0439013
0.0443592
0.0448805
0.0454217
0.0459787
0.0465587
0.0471737
0.0478413
0.0485868
0.0494487
0.0504892
0.0518197
0.0536387
0.0564639
0.0611002
0.0677018
0.0774796
0.0800104
0.0408596
0.0218154
0.0435214
0.0432145
0.0429441
0.0427069
0.042501
0.0423256
0.0421809
0.0420687
0.0419922
0.0419586
0.0419674
0.0420068
0.0420748
0.042172
0.0423003
0.042462
0.0426602
0.0428985
0.0431817
0.0435156
0.0439064
0.0443655
0.0448897
0.0454338
0.0459935
0.046576
0.0471935
0.0478636
0.0486119
0.0494775
0.0505228
0.0518606
0.0536904
0.0565422
0.0611883
0.0678076
0.0775824
0.0799719
0.0420773
0.0273298
0.04349
0.0431859
0.0429185
0.042684
0.0424805
0.0423072
0.0421646
0.0420543
0.0419796
0.0419477
0.0419583
0.0419994
0.042069
0.0421678
0.0422976
0.0424607
0.0426603
0.0429001
0.0431848
0.0435202
0.0439127
0.0443732
0.0449009
0.0454485
0.0460116
0.0465972
0.0472177
0.047891
0.0486429
0.049513
0.0505644
0.0519113
0.0537548
0.0566403
0.0612978
0.0679384
0.0777113
0.0799116
0.0432079
0.0329611
0.0434535
0.0431528
0.0428887
0.0426573
0.0424566
0.0422859
0.0421456
0.0420375
0.0419649
0.041935
0.0419478
0.0419909
0.0420624
0.042163
0.0422945
0.0424594
0.0426606
0.0429022
0.0431886
0.0435258
0.0439202
0.0443825
0.0449142
0.045466
0.046033
0.0466223
0.0472465
0.0479236
0.0486799
0.0495554
0.0506141
0.0519721
0.0538324
0.0567588
0.0614289
0.0680934
0.0778626
0.0798263
0.0442569
0.0386243
0.0434122
0.0431152
0.0428549
0.042627
0.0424295
0.0422617
0.0421241
0.0420185
0.0419483
0.0419207
0.0419359
0.0419813
0.042055
0.0421577
0.0422912
0.042458
0.0426612
0.0429047
0.0431931
0.0435324
0.0439291
0.0443933
0.0449297
0.0454864
0.0460579
0.0466514
0.0472798
0.0479614
0.0487228
0.0496047
0.0506721
0.0520432
0.0539235
0.0568983
0.061582
0.0682723
0.0780334
0.0797127
0.0452327
0.0442485
0.0433659
0.0430731
0.0428171
0.0425931
0.0423992
0.0422347
0.0421001
0.0419973
0.0419297
0.0419048
0.0419226
0.0419707
0.0420469
0.0421519
0.0422877
0.0424567
0.0426621
0.0429077
0.0431985
0.04354
0.0439393
0.0444058
0.0449475
0.0455097
0.0460863
0.0466847
0.0473179
0.0480046
0.0487719
0.0496611
0.0507386
0.0521249
0.0540286
0.05706
0.0617576
0.0684751
0.0782216
0.0795681
0.0461428
0.0497715
0.0433149
0.0430267
0.0427753
0.0425558
0.0423658
0.0422049
0.0420736
0.0419739
0.0419093
0.0418872
0.0419081
0.0419591
0.042038
0.0421456
0.0422839
0.0424554
0.0426632
0.0429114
0.0432046
0.0435488
0.0439509
0.04442
0.0449677
0.045536
0.0461184
0.0467222
0.0473608
0.0480533
0.0488272
0.0497249
0.0508138
0.0522176
0.0541484
0.057245
0.0619567
0.0687024
0.0784254
0.0793898
0.0469935
0.0551382
0.0432592
0.042976
0.0427298
0.042515
0.0423293
0.0421724
0.0420447
0.0419484
0.0418871
0.0418681
0.0418924
0.0419466
0.0420285
0.042139
0.04228
0.0424542
0.0426647
0.0429156
0.0432116
0.0435588
0.0439641
0.0444359
0.0449904
0.0455656
0.0461543
0.0467641
0.0474087
0.0481076
0.0488891
0.0497962
0.0508981
0.0523217
0.0542836
0.0574548
0.0621803
0.0689549
0.0786434
0.0791752
0.0477899
0.0602989
0.043199
0.0429212
0.0426805
0.0424708
0.0422899
0.0421372
0.0420135
0.0419209
0.041863
0.0418476
0.0418755
0.0419331
0.0420184
0.042132
0.0422761
0.0424532
0.0426667
0.0429205
0.0432196
0.0435699
0.0439787
0.0444536
0.0450157
0.0455987
0.0461944
0.0468107
0.0474618
0.0481678
0.0489576
0.0498754
0.0509919
0.0524379
0.0544352
0.0576908
0.0624292
0.0692331
0.0788737
0.0789223
0.0485356
0.065209
0.0431344
0.0428624
0.0426277
0.0424235
0.0422476
0.0420994
0.04198
0.0418913
0.0418373
0.0418256
0.0418575
0.0419189
0.0420077
0.0421247
0.042272
0.0424524
0.0426691
0.0429262
0.0432286
0.0435824
0.043995
0.0444735
0.0450416
0.0456343
0.0462385
0.0468622
0.0475205
0.0482343
0.0490332
0.0499627
0.0510957
0.0525667
0.0546039
0.0579577
0.062706
0.0695382
0.0791146
0.0786171
0.0492326
0.0698277
0.0430656
0.0427997
0.0425713
0.042373
0.0422024
0.0420592
0.0419443
0.0418599
0.04181
0.0418022
0.0418385
0.0419039
0.0419966
0.0421172
0.0422681
0.0424519
0.042672
0.0429327
0.0432388
0.0435963
0.044013
0.0444955
0.0450688
0.0456721
0.0462864
0.0469186
0.0475849
0.0483072
0.0491162
0.0500587
0.0512099
0.052709
0.054792
0.0582313
0.0630062
0.0698708
0.0793635
0.0781846
0.0498721
0.074117
0.0429927
0.0427333
0.0425116
0.0423195
0.0421546
0.0420166
0.0419064
0.0418266
0.0417811
0.0417776
0.0418184
0.0418883
0.041985
0.0421096
0.0422642
0.0424518
0.0426756
0.04294
0.04325
0.0436117
0.0440328
0.0445199
0.0450978
0.0457125
0.046338
0.0469801
0.0476553
0.0483869
0.0492069
0.0501638
0.0513351
0.0528655
0.0550015
0.0585058
0.0633244
0.0702305
0.079617
0.0776322
0.0504505
0.0780404
0.0429158
0.0426633
0.0424486
0.0422631
0.0421042
0.0419717
0.0418666
0.0417916
0.0417507
0.0417518
0.0417975
0.0418721
0.0419732
0.0421019
0.0422606
0.0424521
0.0426799
0.0429484
0.0432626
0.0436286
0.0440545
0.0445466
0.0451294
0.0457558
0.0463936
0.0470467
0.0477319
0.0484738
0.0493058
0.0502785
0.0514722
0.0530372
0.0552348
0.058787
0.0636582
0.0706162
0.0798712
0.0769776
0.0509682
0.0815666
0.0428351
0.0425898
0.0423825
0.0422039
0.0420513
0.0419245
0.0418249
0.0417549
0.0417189
0.0417249
0.0417759
0.0418553
0.0419611
0.0420943
0.0422572
0.0424529
0.042685
0.0429578
0.0432765
0.0436473
0.0440782
0.0445758
0.0451637
0.0458026
0.0464533
0.0471185
0.047815
0.0485681
0.0494134
0.0504034
0.0516219
0.0532253
0.0554938
0.0590811
0.0640076
0.0710269
0.0801212
0.0762357
0.0514283
0.084614
0.0427505
0.0425129
0.0423135
0.0421421
0.041996
0.0418753
0.0417813
0.0417166
0.0416858
0.0416969
0.0417535
0.0418382
0.0419489
0.0420867
0.0422542
0.0424544
0.042691
0.0429685
0.0432919
0.0436678
0.044104
0.0446077
0.0452009
0.0458532
0.0465178
0.047196
0.0479047
0.0486704
0.0495302
0.0505392
0.0517851
0.0534312
0.0557806
0.059393
0.0643744
0.071462
0.0803614
0.0754167
0.0518182
0.0866009
0.0426664
0.0424328
0.0422409
0.0420775
0.0419385
0.0418242
0.0417359
0.0416769
0.0416515
0.041668
0.0417305
0.0418207
0.0419366
0.0420794
0.0422517
0.0424567
0.0426981
0.0429804
0.043309
0.0436902
0.0441322
0.0446422
0.0452413
0.0459082
0.0465875
0.0472795
0.0480015
0.0487809
0.0496567
0.0506867
0.0519629
0.0536564
0.0560974
0.0597262
0.0647608
0.0719211
0.0805854
0.0745272
0.0521235
0.0875366
0.0425598
0.0423581
0.0421695
0.0420109
0.0418788
0.0417711
0.041689
0.0416357
0.0416161
0.0416383
0.041707
0.0418031
0.0419244
0.0420724
0.0422498
0.0424597
0.0427062
0.0429937
0.0433277
0.0437146
0.0441628
0.0446797
0.045285
0.0459678
0.0466628
0.0473695
0.0481058
0.0489003
0.0497936
0.0508466
0.0521564
0.0539027
0.0564485
0.0600845
0.0651695
0.0724043
0.0807855
0.0735706
0.0523358
0.0875234
0.0424526
0.0422755
0.0420971
0.0419432
0.0418171
0.0417161
0.0416405
0.0415933
0.0415796
0.0416079
0.0416831
0.0417854
0.0419125
0.0420659
0.0422486
0.0424638
0.0427156
0.0430086
0.0433483
0.0437413
0.044196
0.0447202
0.0453322
0.0460328
0.0467446
0.0474667
0.0482183
0.049029
0.0499415
0.05102
0.0523671
0.0541728
0.0568056
0.0604658
0.0656032
0.0729116
0.080953
0.0725477
0.0524374
0.086676
0.0423474
0.042186
0.0420216
0.0418745
0.041754
0.0416595
0.0415906
0.0415498
0.0415423
0.0415768
0.0416589
0.0417677
0.0419008
0.0420599
0.0422482
0.0424689
0.0427264
0.0430251
0.043371
0.0437705
0.0442321
0.0447641
0.0453833
0.0460998
0.0468324
0.0475716
0.0483394
0.0491677
0.0501013
0.0512079
0.0525965
0.0544695
0.0571682
0.0608678
0.0660641
0.0734426
0.0810773
0.0714591
0.0525235
0.0848731
0.0422435
0.0420923
0.0419422
0.0418041
0.0416897
0.0416015
0.0415393
0.0415051
0.0415041
0.0415452
0.0416347
0.0417502
0.0418895
0.0420547
0.0422487
0.0424753
0.0427386
0.0430436
0.0433958
0.0438021
0.0442711
0.0448114
0.0454385
0.0461692
0.0469263
0.0476849
0.0484701
0.0493173
0.0502739
0.0514116
0.0528463
0.0547973
0.0575414
0.0612896
0.0665538
0.0739965
0.0811464
0.0703051
0.0526431
0.0820446
0.0421395
0.0419962
0.0418592
0.0417316
0.0416242
0.0415424
0.0414868
0.0414595
0.0414653
0.0415133
0.0416104
0.041733
0.0418789
0.0420502
0.0422504
0.0424831
0.0427526
0.043064
0.043423
0.0438366
0.0443134
0.0448624
0.0454983
0.0462418
0.0470263
0.0478069
0.048611
0.0494785
0.0504604
0.0516325
0.0531188
0.0551489
0.0579289
0.0617321
0.0670739
0.0745712
0.081146
0.0690837
0.0527477
0.0782753
0.0420345
0.0418987
0.0417733
0.0416569
0.0415574
0.0414822
0.0414334
0.041413
0.0414259
0.0414811
0.0415863
0.0417163
0.041869
0.0420468
0.0422533
0.0424923
0.0427684
0.0430866
0.0434528
0.043874
0.0443591
0.0449174
0.0455628
0.0463185
0.0471337
0.0479384
0.048763
0.0496525
0.050662
0.0518723
0.0534165
0.0555093
0.0583317
0.0621968
0.0676262
0.075163
0.0810602
0.0677626
0.0528311
0.0736944
0.0419281
0.0418001
0.0416853
0.04158
0.0414892
0.041421
0.0413791
0.0413659
0.0413861
0.0414488
0.0415625
0.0417001
0.0418599
0.0420445
0.0422576
0.0425033
0.0427862
0.0431115
0.0434853
0.0439147
0.0444086
0.0449767
0.0456325
0.0464003
0.0472439
0.0480793
0.0489269
0.0498403
0.05088
0.0521325
0.0537436
0.0558796
0.0587506
0.0626858
0.0682126
0.0757668
0.0808749
0.0663647
0.0528227
0.0684425
0.0418201
0.0417004
0.0415956
0.0415012
0.0414197
0.041359
0.0413241
0.0413182
0.0413459
0.0414166
0.0415392
0.0416848
0.0418519
0.0420435
0.0422635
0.0425162
0.0428063
0.0431391
0.0435208
0.0439588
0.044462
0.0450406
0.0457076
0.0464879
0.047357
0.0482308
0.0491039
0.050043
0.0511159
0.0524173
0.0540806
0.0562609
0.0591871
0.0632017
0.068835
0.0763736
0.0805463
0.0649584
0.0526402
0.0626647
0.0417104
0.0415998
0.0415046
0.0414209
0.041349
0.0412961
0.0412686
0.0412701
0.0413057
0.0413845
0.0415166
0.0416705
0.0418452
0.042044
0.0422711
0.0425311
0.0428287
0.0431694
0.0435596
0.0440067
0.0445198
0.0451093
0.0457885
0.046582
0.0474745
0.0483867
0.0492954
0.050263
0.0513732
0.0527193
0.0544259
0.0566546
0.0596432
0.0637471
0.069495
0.0769855
0.0800362
0.0635805
0.0522078
0.0565104
0.0415993
0.0414981
0.0414126
0.0413393
0.0412771
0.0412326
0.0412126
0.0412217
0.0412654
0.0413529
0.0414948
0.0416573
0.0418398
0.0420461
0.0422807
0.0425483
0.0428538
0.0432028
0.0436018
0.0440585
0.0445822
0.0451834
0.0458755
0.0466831
0.0475979
0.0485462
0.0494941
0.0504969
0.0516434
0.0530296
0.0547803
0.0570627
0.0601214
0.0643252
0.0701961
0.077613
0.0793141
0.0622425
0.0514606
0.0501339
0.0414868
0.0413956
0.0413197
0.0412566
0.0412043
0.0411684
0.0411562
0.0411733
0.0412253
0.0413218
0.0414741
0.0416455
0.0418361
0.0420501
0.0422925
0.042568
0.0428817
0.0432395
0.0436479
0.0441147
0.0446495
0.0452632
0.0459692
0.046792
0.0477284
0.0487105
0.0496973
0.0507371
0.0519206
0.0533476
0.0551455
0.0574872
0.0606246
0.0649398
0.0709599
0.0782159
0.0783294
0.0609347
0.0503463
0.0436952
0.0413732
0.0412922
0.0412262
0.0411732
0.0411308
0.0411037
0.0410997
0.0411249
0.0411856
0.0412914
0.0414547
0.0416353
0.0418342
0.0420562
0.0423067
0.0425904
0.0429128
0.0432797
0.043698
0.0441756
0.0447223
0.0453492
0.04607
0.0469091
0.0478673
0.0488813
0.0499058
0.050983
0.0522047
0.0536746
0.0555237
0.0579309
0.0611554
0.065599
0.0717948
0.0787498
0.0770771
0.0596331
0.0488268
0.0373584
0.0412586
0.0411882
0.0411322
0.0410893
0.0410567
0.0410387
0.0410431
0.0410767
0.0411464
0.0412621
0.0414368
0.0416269
0.0418343
0.0420646
0.0423234
0.0426158
0.0429473
0.0433239
0.0437526
0.0442416
0.0448008
0.0454418
0.0461785
0.0470352
0.0480155
0.0490602
0.050121
0.0512358
0.052497
0.0540125
0.0559171
0.0583956
0.061718
0.0663142
0.0727015
0.0791642
0.0755821
0.0583035
0.0468911
0.0312891
0.0411434
0.0410837
0.0410379
0.041005
0.0409822
0.0409735
0.0409866
0.0410289
0.0411079
0.0412339
0.0414206
0.0416205
0.0418367
0.0420756
0.0423431
0.0426445
0.0429855
0.0433723
0.043812
0.0443131
0.0448857
0.0455417
0.0462954
0.047171
0.0481742
0.0492488
0.0503448
0.051497
0.0527994
0.054363
0.0563276
0.0588849
0.0623183
0.0670984
0.0736718
0.0794044
0.0738804
0.0568954
0.044479
0.0256427
0.0410276
0.0409787
0.0409433
0.0409205
0.0409076
0.0409083
0.0409303
0.0409817
0.0410704
0.0412072
0.0414062
0.0416164
0.0418416
0.0420894
0.0423659
0.0426767
0.0430277
0.0434252
0.0438766
0.0443906
0.0449774
0.0456494
0.0464212
0.0473173
0.0483445
0.0494484
0.0505786
0.0517683
0.0531133
0.0547284
0.0567583
0.0594024
0.0629641
0.0679664
0.074685
0.0794153
0.0720144
0.0553425
0.0415725
0.0205543
0.0409116
0.0408736
0.0408487
0.040836
0.040833
0.0408432
0.0408745
0.0409352
0.0410341
0.0411823
0.0413941
0.0416149
0.0418494
0.0421062
0.0423921
0.0427128
0.0430743
0.0434832
0.0439469
0.0444745
0.0450765
0.0457655
0.0465568
0.047475
0.0485273
0.0496605
0.0508239
0.0520515
0.053441
0.0551113
0.0572124
0.0599527
0.0636667
0.0689322
0.0757054
0.0791448
0.0700266
0.053572
0.038235
0.0161282
0.0407955
0.0407685
0.0407543
0.0407517
0.0407587
0.0407785
0.0408193
0.0408897
0.0409992
0.0411594
0.0413845
0.0416162
0.0418601
0.0421264
0.0424221
0.0427532
0.0431257
0.0435465
0.0440234
0.0445655
0.0451836
0.0458909
0.0467031
0.0476452
0.0487239
0.0498861
0.0510821
0.0523483
0.0537847
0.0555145
0.0576933
0.0605415
0.0644411
0.0700054
0.0766795
0.0785455
0.0679462
0.0515137
0.0345676
0.0124227
0.0406795
0.0406635
0.0406602
0.0406678
0.0406847
0.0407144
0.0407648
0.0408454
0.040966
0.0411388
0.0413778
0.0416206
0.0418743
0.0421503
0.0424562
0.0427981
0.0431823
0.0436158
0.0441066
0.0446641
0.0452995
0.0460264
0.0468611
0.047829
0.0489355
0.0501265
0.051355
0.0526608
0.054147
0.055941
0.0582048
0.0611774
0.0653069
0.0711866
0.0775356
0.0775775
0.0657749
0.0491092
0.0306929
0.00943812
0.0405637
0.040559
0.0405665
0.0405845
0.0406114
0.040651
0.0407114
0.0408026
0.0409348
0.041121
0.0413746
0.0416286
0.0418921
0.0421783
0.0424949
0.0428482
0.0432447
0.0436916
0.0441972
0.0447712
0.0454251
0.0461729
0.047032
0.0480279
0.0491634
0.0503833
0.0516444
0.0529911
0.0545305
0.0563944
0.0587517
0.0618724
0.0662866
0.0724612
0.078178
0.0761878
0.0634847
0.0463222
0.026743
0.00711353
0.0404484
0.0404551
0.0404735
0.0405019
0.0405388
0.0405884
0.0406591
0.0407612
0.0409055
0.041106
0.0413743
0.0416397
0.0419133
0.04221
0.0425377
0.042903
0.0433124
0.0437735
0.0442948
0.0448863
0.0455599
0.0463302
0.0472157
0.0482418
0.0494074
0.0506563
0.0519505
0.0533405
0.0549372
0.0568769
0.0593393
0.0626449
0.0674034
0.0737844
0.0784931
0.0743894
0.0609759
0.043135
0.0228379
0.00533576
0.047089
0.0460964
0.0452508
0.0445291
0.0439109
0.0433811
0.0429235
0.0470891
0.0460964
0.0452508
0.0445289
0.0439107
0.0433795
0.0429232
0.0470891
0.0460965
0.045251
0.0445292
0.0439111
0.0433798
0.0429231
0.0470891
0.0460966
0.0452511
0.0445294
0.0439112
0.0433798
0.0429227
0.0470891
0.0460966
0.0452512
0.0445294
0.0439112
0.0433797
0.0429224
0.0470891
0.0460966
0.0452512
0.0445294
0.0439112
0.0433795
0.042922
0.0470891
0.0460965
0.0452511
0.0445293
0.043911
0.0433792
0.0429216
0.047089
0.0460965
0.045251
0.0445292
0.0439108
0.0433788
0.042921
0.047089
0.0460964
0.0452508
0.0445289
0.0439104
0.0433784
0.0429204
0.047089
0.0460963
0.0452507
0.0445287
0.04391
0.0433778
0.0429197
0.0470889
0.0460962
0.0452505
0.0445284
0.0439096
0.0433773
0.042919
0.0470889
0.0460961
0.0452503
0.0445281
0.0439092
0.0433767
0.0429183
0.0470889
0.046096
0.0452501
0.0445279
0.0439089
0.0433763
0.0429177
0.0470889
0.0460959
0.04525
0.0445276
0.0439086
0.0433758
0.0429171
0.0470889
0.0460959
0.0452499
0.0445275
0.0439083
0.0433755
0.0429167
0.0470888
0.0460958
0.0452498
0.0445273
0.0439081
0.0433752
0.0429163
0.0470888
0.0460958
0.0452498
0.0445272
0.0439079
0.043375
0.042916
0.0470888
0.0460958
0.0452497
0.0445271
0.0439078
0.0433748
0.0429158
0.0470888
0.0460957
0.0452497
0.0445271
0.0439077
0.0433747
0.0429156
0.0470888
0.0460957
0.0452496
0.044527
0.0439076
0.0433746
0.0429155
0.0470888
0.0460957
0.0452496
0.044527
0.0439076
0.0433745
0.0429154
0.0470888
0.0460957
0.0452496
0.044527
0.0439075
0.0433744
0.0429153
0.0470888
0.0460957
0.0452496
0.0445269
0.0439075
0.0433744
0.0429153
0.0470888
0.0460957
0.0452496
0.0445269
0.0439075
0.0433744
0.0429152
0.0470888
0.0460957
0.0452496
0.0445269
0.0439075
0.0433744
0.0429152
0.0470888
0.0460957
0.0452496
0.0445269
0.0439075
0.0433743
0.0429152
0.0470888
0.0460957
0.0452496
0.0445269
0.0439075
0.0433743
0.0429152
0.0470888
0.0460957
0.0452496
0.0445269
0.0439075
0.0433743
0.0429151
0.0470888
0.0460957
0.0452496
0.0445269
0.0439075
0.0433743
0.0429151
0.0470888
0.0460957
0.0452496
0.0445269
0.0439075
0.0433743
0.0429151
0.0470888
0.0460957
0.0452496
0.0445269
0.0439075
0.0433743
0.0429151
0.0470888
0.0460957
0.0452496
0.0445269
0.0439075
0.0433743
0.0429151
0.0470888
0.0460957
0.0452496
0.0445269
0.0439075
0.0433743
0.0429151
0.0470888
0.0460957
0.0452496
0.0445269
0.0439075
0.0433743
0.0429151
0.0470888
0.0460957
0.0452496
0.0445269
0.0439074
0.0433743
0.0429151
0.0470888
0.0460957
0.0452496
0.0445269
0.0439074
0.0433743
0.0429151
0.0470888
0.0460957
0.0452496
0.0445269
0.0439074
0.0433743
0.0429151
0.0470888
0.0460957
0.0452496
0.0445269
0.0439074
0.0433743
0.0429151
0.0470888
0.0460957
0.0452496
0.0445269
0.0439074
0.0433743
0.0429151
0.0470888
0.0460957
0.0452496
0.0445269
0.0439074
0.0433743
0.0429151
0.0426664
0.0425697
0.04247
0.0423667
0.0422598
0.0421498
0.0420369
0.0419215
0.041804
0.0416847
0.0415639
0.0414419
0.0413191
0.0411955
0.0410716
0.0409475
0.0408234
0.0406998
0.0405767
0.0404545
0.0426611
0.04256
0.042456
0.0423489
0.0422391
0.042127
0.0420128
0.0418966
0.0417788
0.0416596
0.0415391
0.0414175
0.0412952
0.0411722
0.0410487
0.0409251
0.0408015
0.040678
0.040555
0.0404327
0.0426608
0.0425598
0.042456
0.0423492
0.0422399
0.0421281
0.0420142
0.0418983
0.0417806
0.0416614
0.0415408
0.0414191
0.0412966
0.0411733
0.0410495
0.0409255
0.0408015
0.0406776
0.040554
0.0404311
0.0426602
0.042559
0.042455
0.042348
0.0422385
0.0421265
0.0420123
0.0418962
0.0417782
0.0416588
0.0415379
0.041416
0.0412932
0.0411697
0.0410457
0.0409214
0.0407971
0.0406729
0.0405491
0.0404259
0.0426596
0.0425583
0.0424541
0.042347
0.0422374
0.0421253
0.042011
0.0418947
0.0417767
0.0416571
0.0415361
0.0414141
0.0412911
0.0411675
0.0410433
0.0409189
0.0407944
0.04067
0.040546
0.0404226
0.0426591
0.0425576
0.0424532
0.0423461
0.0422363
0.042124
0.0420096
0.0418933
0.0417751
0.0416554
0.0415343
0.0414121
0.0412891
0.0411653
0.041041
0.0409164
0.0407918
0.0406673
0.040543
0.0404194
0.0426585
0.0425568
0.0424523
0.042345
0.0422351
0.0421228
0.0420083
0.0418918
0.0417735
0.0416537
0.0415325
0.0414103
0.0412871
0.0411632
0.0410388
0.0409141
0.0407894
0.0406647
0.0405404
0.0404167
0.0426577
0.042556
0.0424513
0.0423439
0.0422339
0.0421214
0.0420068
0.0418902
0.0417719
0.041652
0.0415308
0.0414084
0.0412851
0.0411612
0.0410367
0.040912
0.0407871
0.0406624
0.0405379
0.0404141
0.0426569
0.042555
0.0424502
0.0423427
0.0422325
0.04212
0.0420053
0.0418886
0.0417702
0.0416503
0.041529
0.0414065
0.0412832
0.0411592
0.0410347
0.0409099
0.040785
0.0406602
0.0405356
0.0404117
0.0426561
0.042554
0.0424491
0.0423414
0.0422312
0.0421186
0.0420038
0.041887
0.0417685
0.0416485
0.0415272
0.0414047
0.0412814
0.0411573
0.0410327
0.0409079
0.0407829
0.0406581
0.0405335
0.0404095
0.0426552
0.042553
0.0424479
0.0423401
0.0422298
0.0421171
0.0420022
0.0418854
0.0417669
0.0416468
0.0415254
0.0414029
0.0412795
0.0411555
0.0410309
0.040906
0.040781
0.0406561
0.0405315
0.0404075
0.0426544
0.042552
0.0424468
0.0423389
0.0422284
0.0421157
0.0420007
0.0418839
0.0417653
0.0416452
0.0415238
0.0414012
0.0412778
0.0411537
0.0410291
0.0409042
0.0407793
0.0406544
0.0405298
0.0404058
0.0426536
0.042551
0.0424457
0.0423377
0.0422271
0.0421143
0.0419993
0.0418823
0.0417637
0.0416436
0.0415221
0.0413996
0.0412762
0.0411521
0.0410275
0.0409026
0.0407777
0.0406528
0.0405282
0.0404042
0.0426529
0.0425502
0.0424447
0.0423365
0.0422259
0.0421129
0.0419979
0.0418809
0.0417622
0.0416421
0.0415206
0.0413981
0.0412747
0.0411506
0.041026
0.0409012
0.0407762
0.0406514
0.0405268
0.0404028
0.0426523
0.0425494
0.0424437
0.0423355
0.0422247
0.0421116
0.0419965
0.0418795
0.0417608
0.0416406
0.0415192
0.0413966
0.0412733
0.0411492
0.0410247
0.0408999
0.040775
0.0406502
0.0405256
0.0404017
0.0426518
0.0425487
0.0424429
0.0423344
0.0422235
0.0421104
0.0419952
0.0418781
0.0417594
0.0416392
0.0415178
0.0413953
0.0412719
0.0411479
0.0410234
0.0408987
0.0407738
0.0406491
0.0405246
0.0404007
0.0426514
0.042548
0.042442
0.0423334
0.0422224
0.0421092
0.0419939
0.0418768
0.041758
0.0416378
0.0415164
0.0413939
0.0412706
0.0411467
0.0410222
0.0408976
0.0407728
0.0406481
0.0405238
0.0404
0.042651
0.0425474
0.0424412
0.0423324
0.0422213
0.0421079
0.0419926
0.0418754
0.0417567
0.0416365
0.0415151
0.0413926
0.0412694
0.0411455
0.0410211
0.0408965
0.0407719
0.0406473
0.040523
0.0403993
0.0426507
0.0425468
0.0424404
0.0423314
0.0422201
0.0421067
0.0419913
0.041874
0.0417553
0.0416351
0.0415137
0.0413913
0.0412681
0.0411443
0.04102
0.0408955
0.040771
0.0406465
0.0405224
0.0403988
0.0426504
0.0425462
0.0424395
0.0423304
0.0422189
0.0421054
0.0419899
0.0418726
0.0417538
0.0416336
0.0415123
0.0413899
0.0412668
0.0411431
0.041019
0.0408946
0.0407701
0.0406458
0.0405218
0.0403984
0.0426501
0.0425456
0.0424387
0.0423293
0.0422177
0.042104
0.0419884
0.0418711
0.0417523
0.0416321
0.0415108
0.0413885
0.0412655
0.0411419
0.0410179
0.0408936
0.0407693
0.0406452
0.0405213
0.040398
0.0426498
0.042545
0.0424377
0.0423282
0.0422163
0.0421025
0.0419868
0.0418694
0.0417506
0.0416305
0.0415092
0.041387
0.0412641
0.0411406
0.0410167
0.0408926
0.0407685
0.0406445
0.0405208
0.0403977
0.0426495
0.0425443
0.0424368
0.0423269
0.0422149
0.0421009
0.0419851
0.0418677
0.0417488
0.0416287
0.0415075
0.0413854
0.0412626
0.0411392
0.0410155
0.0408916
0.0407676
0.0406439
0.0405204
0.0403975
0.0426493
0.0425436
0.0424357
0.0423256
0.0422133
0.0420992
0.0419833
0.0418658
0.0417469
0.0416268
0.0415057
0.0413837
0.041261
0.0411378
0.0410142
0.0408905
0.0407668
0.0406432
0.0405199
0.0403972
0.042649
0.0425429
0.0424346
0.0423241
0.0422116
0.0420973
0.0419812
0.0418637
0.0417448
0.0416247
0.0415036
0.0413817
0.0412592
0.0411362
0.0410128
0.0408893
0.0407658
0.0406425
0.0405195
0.040397
0.0426487
0.042542
0.0424333
0.0423225
0.0422097
0.0420952
0.041979
0.0418614
0.0417425
0.0416224
0.0415014
0.0413797
0.0412573
0.0411344
0.0410113
0.040888
0.0407648
0.0406417
0.040519
0.0403968
0.0426484
0.0425411
0.0424319
0.0423207
0.0422076
0.0420929
0.0419765
0.0418588
0.0417399
0.0416199
0.041499
0.0413774
0.0412552
0.0411325
0.0410096
0.0408866
0.0407637
0.0406409
0.0405185
0.0403966
0.042648
0.0425401
0.0424304
0.0423188
0.0422054
0.0420903
0.0419738
0.041856
0.0417371
0.0416171
0.0414963
0.0413749
0.0412528
0.0411304
0.0410078
0.0408851
0.0407624
0.04064
0.0405179
0.0403964
0.0426476
0.0425391
0.0424287
0.0423166
0.0422028
0.0420875
0.0419709
0.041853
0.041734
0.0416141
0.0414934
0.0413721
0.0412503
0.0411281
0.0410058
0.0408834
0.0407611
0.040639
0.0405173
0.0403962
0.0426472
0.0425379
0.0424269
0.0423142
0.0422001
0.0420845
0.0419676
0.0418496
0.0417306
0.0416107
0.0414901
0.041369
0.0412474
0.0411256
0.0410036
0.0408815
0.0407596
0.040638
0.0405167
0.040396
0.0426467
0.0425365
0.0424248
0.0423116
0.042197
0.042081
0.0419639
0.0418458
0.0417268
0.041607
0.0414866
0.0413656
0.0412443
0.0411228
0.0410011
0.0408795
0.040758
0.0406368
0.0405159
0.0403957
0.0426462
0.0425351
0.0424226
0.0423087
0.0421936
0.0420773
0.0419599
0.0418417
0.0417226
0.0416029
0.0414826
0.0413619
0.0412409
0.0411197
0.0409984
0.0408773
0.0407562
0.0406355
0.0405152
0.0403954
0.0426456
0.0425334
0.0424201
0.0423055
0.0421898
0.0420731
0.0419555
0.0418371
0.041718
0.0415983
0.0414782
0.0413578
0.0412371
0.0411163
0.0409955
0.0408748
0.0407543
0.0406341
0.0405143
0.0403951
0.042645
0.0425317
0.0424173
0.042302
0.0421857
0.0420685
0.0419506
0.041832
0.0417129
0.0415933
0.0414734
0.0413532
0.0412329
0.0411125
0.0409922
0.040872
0.0407521
0.0406325
0.0405134
0.0403948
0.0426443
0.0425297
0.0424143
0.0422981
0.0421811
0.0420634
0.0419452
0.0418264
0.0417073
0.0415878
0.041468
0.0413482
0.0412282
0.0411083
0.0409885
0.040869
0.0407497
0.0406308
0.0405123
0.0403945
0.0426435
0.0425275
0.0424109
0.0422938
0.042176
0.0420578
0.0419392
0.0418203
0.041701
0.0415816
0.0414621
0.0413426
0.0412231
0.0411037
0.0409845
0.0408656
0.040747
0.0406289
0.0405112
0.0403941
0.0426427
0.0425251
0.0424072
0.042289
0.0421705
0.0420516
0.0419326
0.0418134
0.0416942
0.0415749
0.0414556
0.0413364
0.0412174
0.0410986
0.0409801
0.0408619
0.0407441
0.0406267
0.0405099
0.0403937
0.0426418
0.0425224
0.0424031
0.0422837
0.0421643
0.0420448
0.0419253
0.0418059
0.0416866
0.0415674
0.0414484
0.0413296
0.0412112
0.041093
0.0409752
0.0408578
0.0407409
0.0406244
0.0405085
0.0403932
0.0426407
0.0425195
0.0423986
0.0422779
0.0421574
0.0420372
0.0419172
0.0417975
0.0416782
0.0415591
0.0414404
0.0413221
0.0412042
0.0410868
0.0409698
0.0408533
0.0407373
0.0406218
0.0405069
0.0403926
0.0426396
0.0425162
0.0423936
0.0422715
0.0421499
0.0420288
0.0419083
0.0417883
0.0416689
0.04155
0.0414316
0.0413138
0.0411966
0.0410799
0.0409638
0.0408483
0.0407333
0.040619
0.0405052
0.0403921
0.00402553
0.0031871
0.00260555
0.0021807
0.00186298
0.0016239
0.001443
0.00130628
0.00121807
0.00115744
0.00110455
0.00105607
0.00101161
0.000971067
0.00093407
0.000900066
0.000868542
0.000839184
0.000811844
0.000786508
0.000763177
0.000741774
0.000722163
0.00070419
0.000687762
0.000672773
0.000659068
0.0006465
0.000634915
0.000624152
0.000614064
0.00060451
0.000595435
0.000592647
0.000595831
0.000599516
0.000603352
0.000607118
0.000610598
0.000613553
0.000615732
0.000616891
0.00061681
0.000615303
0.000612225
0.000607481
0.000601032
0.000592894
0.000583137
0.000571874
0.000559248
0.000545402
0.000530501
0.000514727
0.000498275
0.00048133
0.000464067
0.000446645
0.00042919
0.000411807
0.000394589
0.000377608
0.000360928
0.000344601
0.000328674
0.000313184
0.000298162
0.000283626
0.000269587
0.000256054
0.000243032
0.000230526
0.000218537
0.000207061
0.000196091
0.000185608
0.0001756
0.00016606
0.000156983
0.000148367
0.0192969
0.0164451
0.0140852
0.0121973
0.0107237
0.00958809
0.00870938
0.00801481
0.00745051
0.00697752
0.00656944
0.0062119
0.00589741
0.00562057
0.00537597
0.00515821
0.00496277
0.00478644
0.00462718
0.00448379
0.0043554
0.00424107
0.00413967
0.00405005
0.00397147
0.00390314
0.00384398