/*--------------------------------*- C++ -*----------------------------------*\
| =========                 |                                                 |
| \\      /  F ield         | OpenFOAM: The Open Source CFD Toolbox           |
|  \\    /   O peration     | Version:  v2006                                 |
|   \\  /    A nd           | Website:  www.openfoam.com                      |
|    \\/     M anipulation  |                                                 |
\*---------------------------------------------------------------------------*/
FoamFile
{
    version     2.0;
    format      ascii;
    class       volScalarField;
    location    "269";
    object      nut;
}
// * * * * * * * * * * * * * * * * * * * * * * * * * * * * * * * * * * * * * //

dimensions      [0 2 -1 0 0 0 0];


internalField   nonuniform List<scalar> 
26820
(
0.00017987
0.000179633
0.000179426
0.000179246
0.00017909
0.000178955
0.000178839
0.00017987
0.000179632
0.000179425
0.000179245
0.000179089
0.000178954
0.000178837
0.00017987
0.000179631
0.000179423
0.000179243
0.000179086
0.000178951
0.000178834
0.000179869
0.000179629
0.000179421
0.000179239
0.000179082
0.000178946
0.000178828
0.000179868
0.000179627
0.000179417
0.000179235
0.000179077
0.00017894
0.000178821
0.000179867
0.000179624
0.000179413
0.000179229
0.00017907
0.000178932
0.000178812
0.000179866
0.000179621
0.000179408
0.000179222
0.000179061
0.000178923
0.000178802
0.000179865
0.000179617
0.000179402
0.000179214
0.000179052
0.000178912
0.000178789
0.000179863
0.000179613
0.000179395
0.000179205
0.000179041
0.000178899
0.000178775
0.000179862
0.000179608
0.000179387
0.000179195
0.000179029
0.000178886
0.000178759
0.00017986
0.000179603
0.000179379
0.000179184
0.000179015
0.00017887
0.000178742
0.000179858
0.000179597
0.000179369
0.000179172
0.000179001
0.000178854
0.000178723
0.000179856
0.00017959
0.000179359
0.000179159
0.000178985
0.000178836
0.000178702
0.000179853
0.000179583
0.000179348
0.000179145
0.000178968
0.000178816
0.00017868
0.000179851
0.000179576
0.000179337
0.000179129
0.000178949
0.000178796
0.000178656
0.000179848
0.000179568
0.000179324
0.000179113
0.00017893
0.000178774
0.000178631
0.000179845
0.00017956
0.000179311
0.000179096
0.000178909
0.00017875
0.000178605
0.000179842
0.000179551
0.000179298
0.000179078
0.000178888
0.000178726
0.000178577
0.000179839
0.000179542
0.000179283
0.00017906
0.000178866
0.0001787
0.000178549
0.000179836
0.000179532
0.000179268
0.00017904
0.000178842
0.000178672
0.000178521
0.000178734
0.000178637
0.000178555
0.000178487
0.000178434
0.000178397
0.000178379
0.000178386
0.000178429
0.000178533
0.000161368
0.000131976
0.000108028
8.84896e-05
7.25115e-05
5.9444e-05
4.87586e-05
4.00198e-05
3.28719e-05
2.7025e-05
2.22421e-05
1.83313e-05
1.51269e-05
1.24881e-05
1.03147e-05
8.52647e-06
7.05702e-06
5.85142e-06
4.86419e-06
4.05797e-06
3.40241e-06
2.87376e-06
2.45432e-06
2.13775e-06
1.92358e-06
1.78009e-06
1.71654e-06
1.51058e-06
1.13796e-07
1.75487e-09
0.000178732
0.000178636
0.000178553
0.000178485
0.000178432
0.000178396
0.000178378
0.000178385
0.000178427
0.000178531
0.000161863
0.000132394
0.000108366
8.87578e-05
7.27249e-05
5.96147e-05
4.88958e-05
4.01307e-05
3.29621e-05
2.70989e-05
2.2303e-05
1.83819e-05
1.51696e-05
1.25244e-05
1.03457e-05
8.55302e-06
7.07991e-06
5.87125e-06
4.88146e-06
4.07309e-06
3.41572e-06
2.88555e-06
2.46481e-06
2.14708e-06
1.93134e-06
1.78585e-06
1.71868e-06
1.50851e-06
1.16039e-07
2.78995e-09
0.000178729
0.000178632
0.00017855
0.000178482
0.00017843
0.000178393
0.000178376
0.000178383
0.000178425
0.000178529
0.000161993
0.000132492
0.000108441
8.8817e-05
7.27731e-05
5.96552e-05
4.89306e-05
4.0161e-05
3.29889e-05
2.71229e-05
2.23246e-05
1.84013e-05
1.51874e-05
1.25407e-05
1.03606e-05
8.56663e-06
7.0923e-06
5.88252e-06
4.89172e-06
4.08244e-06
3.42426e-06
2.89338e-06
2.472e-06
2.15372e-06
1.93692e-06
1.78976e-06
1.71949e-06
1.50778e-06
1.19713e-07
4.33078e-09
0.000178724
0.000178628
0.000178546
0.000178479
0.000178426
0.00017839
0.000178373
0.00017838
0.000178423
0.000178528
0.000161997
0.000132497
0.000108451
8.88319e-05
7.27912e-05
5.96752e-05
4.89516e-05
4.01824e-05
3.30101e-05
2.71435e-05
2.23444e-05
1.842e-05
1.5205e-05
1.25571e-05
1.03757e-05
8.58036e-06
7.10473e-06
5.89372e-06
4.9018e-06
4.09151e-06
3.43245e-06
2.9008e-06
2.47874e-06
2.16006e-06
1.94247e-06
1.79421e-06
1.72198e-06
1.51011e-06
1.23668e-07
6.14087e-09
0.000178717
0.000178621
0.00017854
0.000178474
0.000178422
0.000178386
0.000178369
0.000178377
0.000178421
0.000178526
0.000162192
0.000132667
0.000108599
8.89618e-05
7.29046e-05
5.97742e-05
4.90382e-05
4.02582e-05
3.30766e-05
2.72019e-05
2.23957e-05
1.8465e-05
1.5245e-05
1.25925e-05
1.04069e-05
8.60773e-06
7.1287e-06
5.91471e-06
4.92017e-06
4.10763e-06
3.44665e-06
2.91341e-06
2.49005e-06
2.17064e-06
1.95198e-06
1.80284e-06
1.72937e-06
1.51714e-06
1.2737e-07
8.10311e-09
0.000178708
0.000178614
0.000178533
0.000178467
0.000178416
0.000178381
0.000178365
0.000178373
0.000178418
0.000178523
0.000162419
0.000132867
0.000108775
8.91155e-05
7.30392e-05
5.98922e-05
4.91417e-05
4.03492e-05
3.31566e-05
2.72723e-05
2.24578e-05
1.85196e-05
1.52936e-05
1.26356e-05
1.04449e-05
8.64113e-06
7.15796e-06
5.94028e-06
4.94252e-06
4.1272e-06
3.46384e-06
2.92864e-06
2.5037e-06
2.18353e-06
1.96361e-06
1.81369e-06
1.7394e-06
1.52647e-06
1.30643e-07
1.01512e-08
0.000178698
0.000178604
0.000178525
0.00017846
0.000178409
0.000178375
0.000178359
0.000178369
0.000178414
0.000178521
0.000162648
0.000133071
0.000108957
8.92775e-05
7.31831e-05
6.00198e-05
4.9255e-05
4.04497e-05
3.32457e-05
2.73512e-05
2.25277e-05
1.85814e-05
1.53488e-05
1.26847e-05
1.04884e-05
8.6794e-06
7.1915e-06
5.9696e-06
4.96812e-06
4.14956e-06
3.48344e-06
2.94596e-06
2.51922e-06
2.19826e-06
1.97688e-06
1.82606e-06
1.75117e-06
1.53731e-06
1.33452e-07
1.22427e-08
0.000178686
0.000178593
0.000178515
0.000178451
0.000178401
0.000178368
0.000178353
0.000178364
0.00017841
0.000178518
0.000162902
0.000133299
0.000109161
8.94605e-05
7.33465e-05
6.01656e-05
4.93848e-05
4.0565e-05
3.33482e-05
2.74422e-05
2.26084e-05
1.86528e-05
1.54127e-05
1.27416e-05
1.05387e-05
8.72372e-06
7.23034e-06
6.00353e-06
4.99771e-06
4.17537e-06
3.50603e-06
2.96589e-06
2.53708e-06
2.21525e-06
1.99215e-06
1.84025e-06
1.76483e-06
1.54993e-06
1.35813e-07
1.43459e-08
0.000178673
0.000178581
0.000178504
0.000178441
0.000178392
0.00017836
0.000178347
0.000178358
0.000178405
0.000178514
0.000163189
0.000133556
0.000109391
8.96677e-05
7.35319e-05
6.03311e-05
4.95324e-05
4.06965e-05
3.34651e-05
2.75461e-05
2.27007e-05
1.87345e-05
1.54858e-05
1.28067e-05
1.05964e-05
8.77452e-06
7.27488e-06
6.04244e-06
5.03164e-06
4.20497e-06
3.53193e-06
2.98877e-06
2.5576e-06
2.23485e-06
2.00973e-06
1.85651e-06
1.78061e-06
1.5647e-06
1.37755e-07
1.64345e-08
0.000178658
0.000178567
0.000178491
0.00017843
0.000178382
0.000178351
0.000178339
0.000178351
0.0001784
0.000178511
0.000163505
0.000133841
0.000109647
8.98977e-05
7.3738e-05
6.05156e-05
4.96973e-05
4.08436e-05
3.35961e-05
2.76627e-05
2.28043e-05
1.88264e-05
1.55681e-05
1.28802e-05
1.06615e-05
8.83188e-06
7.32519e-06
6.08644e-06
5.07005e-06
4.23849e-06
3.5613e-06
3.01473e-06
2.58095e-06
2.25723e-06
2.0298e-06
1.87502e-06
1.79862e-06
1.58187e-06
1.39307e-07
1.84855e-08
0.000178641
0.000178552
0.000178478
0.000178417
0.000178372
0.000178342
0.00017833
0.000178344
0.000178395
0.000178507
0.000163851
0.000134153
0.000109928
9.01505e-05
7.3965e-05
6.0719e-05
4.98793e-05
4.10062e-05
3.37411e-05
2.77919e-05
2.29194e-05
1.89285e-05
1.56598e-05
1.29621e-05
1.07341e-05
8.89595e-06
7.38145e-06
6.13568e-06
5.11307e-06
4.27609e-06
3.59428e-06
3.04394e-06
2.60729e-06
2.2826e-06
2.05251e-06
1.89589e-06
1.81901e-06
1.60175e-06
1.40495e-07
2.04784e-08
0.000178623
0.000178535
0.000178463
0.000178404
0.00017836
0.000178331
0.000178321
0.000178337
0.000178388
0.000178503
0.000164226
0.000134492
0.000110235
9.04269e-05
7.42132e-05
6.09417e-05
5.00788e-05
4.11846e-05
3.39005e-05
2.7934e-05
2.30461e-05
1.9041e-05
1.5761e-05
1.30526e-05
1.08146e-05
8.96697e-06
7.44388e-06
6.19038e-06
5.16092e-06
4.31797e-06
3.63108e-06
3.0766e-06
2.63683e-06
2.31116e-06
2.07806e-06
1.91929e-06
1.84194e-06
1.62473e-06
1.41341e-07
2.23948e-08
0.000178603
0.000178517
0.000178446
0.000178389
0.000178347
0.00017832
0.000178311
0.000178328
0.000178382
0.000178499
0.000164631
0.00013486
0.000110567
9.07268e-05
7.4483e-05
6.1184e-05
5.02959e-05
4.1379e-05
3.40743e-05
2.80893e-05
2.31846e-05
1.91642e-05
1.5872e-05
1.31521e-05
1.0903e-05
9.04518e-06
7.51271e-06
6.25077e-06
5.21382e-06
4.36435e-06
3.67191e-06
3.11293e-06
2.66979e-06
2.34317e-06
2.10664e-06
1.9454e-06
1.86764e-06
1.65146e-06
1.41863e-07
2.4218e-08
0.000178582
0.000178498
0.000178429
0.000178374
0.000178333
0.000178308
0.000178301
0.00017832
0.000178375
0.000178494
0.000165066
0.000135256
0.000110925
9.10505e-05
7.47744e-05
6.14458e-05
5.05309e-05
4.15895e-05
3.42627e-05
2.82577e-05
2.33351e-05
1.92983e-05
1.59921e-05
1.32604e-05
1.09997e-05
9.13082e-06
7.58819e-06
6.31709e-06
5.27202e-06
4.41545e-06
3.717e-06
3.15314e-06
2.70641e-06
2.37903e-06
2.13851e-06
1.97443e-06
1.89632e-06
1.66332e-06
1.42072e-07
2.5933e-08
0.000178559
0.000178477
0.00017841
0.000178357
0.000178318
0.000178295
0.00017829
0.00017831
0.000178368
0.00017849
0.00016553
0.000135679
0.000111309
9.13979e-05
7.50873e-05
6.17273e-05
5.07837e-05
4.18163e-05
3.44659e-05
2.84396e-05
2.34978e-05
1.94435e-05
1.61219e-05
1.33776e-05
1.11047e-05
9.22412e-06
7.67057e-06
6.3896e-06
5.33576e-06
4.47155e-06
3.76661e-06
3.19751e-06
2.747e-06
2.41795e-06
2.17372e-06
2.00673e-06
1.92824e-06
1.59354e-06
1.41945e-07
2.75256e-08
0.000178535
0.000178455
0.000178391
0.00017834
0.000178303
0.000178281
0.000178278
0.000178301
0.000178361
0.000178485
0.000166023
0.00013613
0.000111719
9.1769e-05
7.5422e-05
6.20285e-05
5.10544e-05
4.20593e-05
3.46839e-05
2.86349e-05
2.36728e-05
1.96e-05
1.62617e-05
1.3504e-05
1.12184e-05
9.32533e-06
7.76015e-06
6.46859e-06
5.40533e-06
4.53291e-06
3.82101e-06
3.24631e-06
2.7919e-06
2.45991e-06
2.2123e-06
2.04253e-06
1.96374e-06
1.5204e-06
1.41481e-07
2.89823e-08
0.00017851
0.000178432
0.00017837
0.000178321
0.000178286
0.000178267
0.000178266
0.00017829
0.000178353
0.000178481
0.000166545
0.000136608
0.000112154
9.21638e-05
7.57784e-05
6.23495e-05
5.13432e-05
4.23188e-05
3.49169e-05
2.88439e-05
2.38602e-05
1.97679e-05
1.64118e-05
1.36399e-05
1.13408e-05
9.43469e-06
7.8572e-06
6.55436e-06
5.48105e-06
4.59985e-06
3.88052e-06
3.29986e-06
2.8415e-06
2.50537e-06
2.25443e-06
2.08204e-06
2.00322e-06
1.44487e-06
1.40691e-07
3.02915e-08
0.000178483
0.000178408
0.000178348
0.000178302
0.000178269
0.000178252
0.000178253
0.00017828
0.000178345
0.000178476
0.000167095
0.000137114
0.000112615
9.25822e-05
7.61564e-05
6.26903e-05
5.16501e-05
4.25949e-05
3.5165e-05
2.90668e-05
2.40603e-05
1.99476e-05
1.65726e-05
1.37857e-05
1.14723e-05
9.55252e-06
7.96204e-06
6.64726e-06
5.56325e-06
4.67271e-06
3.9455e-06
3.35852e-06
2.89619e-06
2.55484e-06
2.30039e-06
2.12548e-06
2.04706e-06
1.36778e-06
1.39598e-07
3.1423e-08
0.000178456
0.000178383
0.000178326
0.000178282
0.000178251
0.000178236
0.00017824
0.000178269
0.000178338
0.000178472
0.000167674
0.000137647
0.000113101
9.30243e-05
7.6556e-05
6.3051e-05
5.19751e-05
4.28875e-05
3.54283e-05
2.93037e-05
2.42733e-05
2.01391e-05
1.67443e-05
1.39418e-05
1.16134e-05
9.67914e-06
8.07501e-06
6.74762e-06
5.65231e-06
4.75187e-06
4.01631e-06
3.4227e-06
2.95642e-06
2.60883e-06
2.35051e-06
2.17313e-06
2.09575e-06
1.28988e-06
1.38178e-07
3.21607e-08
0.000178429
0.000178356
0.000178302
0.000178261
0.000178233
0.00017822
0.000178226
0.000178258
0.00017833
0.000178468
0.000168281
0.000138207
0.000113613
9.34899e-05
7.69773e-05
6.34315e-05
5.23183e-05
4.31968e-05
3.57069e-05
2.95546e-05
2.44993e-05
2.03426e-05
1.69272e-05
1.41084e-05
1.17643e-05
9.81494e-06
8.19648e-06
6.85585e-06
5.74862e-06
4.83774e-06
4.0934e-06
3.49284e-06
3.02268e-06
2.66781e-06
2.40521e-06
2.22535e-06
2.14991e-06
1.2118e-06
1.36409e-07
3.25081e-08
0.000178394
0.000178332
0.000178279
0.000178239
0.000178214
0.000178204
0.000178212
0.000178247
0.000178322
0.000178464
0.000168916
0.000138794
0.00011415
9.3979e-05
7.74202e-05
6.38317e-05
5.26797e-05
4.35228e-05
3.6001e-05
2.98199e-05
2.47385e-05
2.05585e-05
1.71214e-05
1.42859e-05
1.19256e-05
9.96032e-06
8.32686e-06
6.97236e-06
5.85262e-06
4.93079e-06
4.17724e-06
3.56947e-06
3.09564e-06
2.73232e-06
2.46496e-06
2.28258e-06
2.21028e-06
1.1341e-06
1.34277e-07
3.25031e-08
0.000178358
0.000178305
0.000178255
0.000178217
0.000178195
0.000178187
0.000178198
0.000178235
0.000178314
0.000178461
0.00016958
0.000139408
0.000114713
9.44915e-05
7.78846e-05
6.42518e-05
5.30593e-05
4.38656e-05
3.63106e-05
3.00995e-05
2.49911e-05
2.07868e-05
1.73274e-05
1.44749e-05
1.20976e-05
1.01157e-05
8.46659e-06
7.09761e-06
5.9648e-06
5.03151e-06
4.26837e-06
3.65319e-06
3.1742e-06
2.80269e-06
2.53029e-06
2.34532e-06
2.27796e-06
1.05738e-06
1.31813e-07
3.21885e-08
0.000178324
0.000178275
0.00017823
0.000178195
0.000178175
0.00017817
0.000178183
0.000178223
0.000178306
0.000178458
0.000170272
0.000140049
0.000115301
9.50274e-05
7.83705e-05
6.46916e-05
5.3457e-05
4.42252e-05
3.66358e-05
3.03936e-05
2.52573e-05
2.10278e-05
1.75452e-05
1.46744e-05
1.22805e-05
1.02816e-05
8.61617e-06
7.2321e-06
6.08568e-06
5.14046e-06
4.3674e-06
3.74471e-06
3.25877e-06
2.87928e-06
2.60178e-06
2.41419e-06
2.35431e-06
9.81678e-07
1.28763e-07
3.15192e-08
0.00017829
0.000178245
0.000178203
0.000178172
0.000178154
0.000178152
0.000178168
0.000178212
0.000178298
0.000178455
0.000170993
0.000140718
0.000115914
9.55866e-05
7.88778e-05
6.51511e-05
5.38729e-05
4.46017e-05
3.69766e-05
3.07024e-05
2.55372e-05
2.12818e-05
1.77754e-05
1.48848e-05
1.24748e-05
1.04585e-05
8.77612e-06
7.37637e-06
6.21583e-06
5.25826e-06
4.47501e-06
3.84491e-06
3.35016e-06
2.96258e-06
2.68008e-06
2.48991e-06
2.44063e-06
9.07378e-07
1.25069e-07
3.0469e-08
0.000178256
0.000178214
0.000178176
0.000178148
0.000178133
0.000178134
0.000178153
0.0001782
0.000178291
0.000178453
0.000171744
0.000141414
0.000116552
9.6169e-05
7.94063e-05
6.56302e-05
5.4307e-05
4.49949e-05
3.73331e-05
3.10259e-05
2.58309e-05
2.15489e-05
1.8018e-05
1.51065e-05
1.26805e-05
1.06468e-05
8.947e-06
7.531e-06
6.35589e-06
5.38559e-06
4.59197e-06
3.95392e-06
3.44916e-06
3.05321e-06
2.76596e-06
2.57381e-06
2.53858e-06
8.31665e-07
1.20969e-07
2.90696e-08
0.000178221
0.000178182
0.000178148
0.000178124
0.000178112
0.000178116
0.000178138
0.000178189
0.000178284
0.000178452
0.000172524
0.000142138
0.000117215
9.67745e-05
7.99561e-05
6.61288e-05
5.47591e-05
4.54049e-05
3.77053e-05
3.13642e-05
2.61387e-05
2.18293e-05
1.82735e-05
1.534e-05
1.28985e-05
1.08472e-05
9.12937e-06
7.69664e-06
6.50654e-06
5.52323e-06
4.71915e-06
4.07132e-06
3.55651e-06
3.15198e-06
2.8602e-06
2.66745e-06
2.64754e-06
7.72856e-07
1.1623e-07
2.73687e-08
0.000178186
0.00017815
0.00017812
0.000178099
0.00017809
0.000178097
0.000178123
0.000178177
0.000178277
0.000178452
0.000173335
0.000142889
0.000117904
9.74031e-05
8.05269e-05
6.66468e-05
5.52291e-05
4.58317e-05
3.80933e-05
3.17173e-05
2.64606e-05
2.21232e-05
1.8542e-05
1.55858e-05
1.31277e-05
1.10598e-05
9.32386e-06
7.87397e-06
6.66853e-06
5.67197e-06
4.85765e-06
4.19782e-06
3.67299e-06
3.25982e-06
2.96373e-06
2.77229e-06
2.76833e-06
7.29283e-07
1.11019e-07
2.54186e-08
0.000178151
0.000178118
0.000178092
0.000178074
0.000178068
0.000178078
0.000178108
0.000178166
0.000178271
0.000178453
0.000174176
0.000143669
0.000118618
9.80547e-05
8.11187e-05
6.71841e-05
5.5717e-05
4.62752e-05
3.84969e-05
3.20853e-05
2.67967e-05
2.24308e-05
1.88237e-05
1.58443e-05
1.33684e-05
1.12854e-05
9.53112e-06
8.06367e-06
6.84264e-06
5.83297e-06
5.00648e-06
4.33428e-06
3.79948e-06
3.37785e-06
3.07782e-06
2.88745e-06
2.90697e-06
6.92122e-07
1.05544e-07
2.32733e-08
0.000178114
0.000178085
0.000178063
0.000178048
0.000178045
0.000178059
0.000178093
0.000178155
0.000178266
0.000178455
0.000175049
0.000144477
0.000119357
9.8729e-05
8.17313e-05
6.77405e-05
5.62226e-05
4.67352e-05
3.89163e-05
3.24683e-05
2.71472e-05
2.27522e-05
1.9119e-05
1.61159e-05
1.3621e-05
1.15228e-05
9.75196e-06
8.26673e-06
7.03004e-06
6.00614e-06
5.1662e-06
4.48158e-06
3.93699e-06
3.50728e-06
3.20356e-06
3.01331e-06
3.07808e-06
6.56302e-07
9.99289e-08
2.0988e-08
0.000178077
0.000178052
0.000178034
0.000178022
0.000178023
0.00017804
0.000178077
0.000178144
0.000178261
0.000178459
0.000175957
0.000145313
0.00012012
9.9426e-05
8.23645e-05
6.83158e-05
5.67458e-05
4.72117e-05
3.93512e-05
3.28662e-05
2.7512e-05
2.30876e-05
1.94279e-05
1.6401e-05
1.38863e-05
1.17722e-05
9.98534e-06
8.48313e-06
7.23022e-06
6.19119e-06
5.33764e-06
4.64076e-06
4.08663e-06
3.64942e-06
3.34105e-06
3.15223e-06
3.30443e-06
6.19179e-07
9.42269e-08
1.86201e-08
0.00017804
0.000178019
0.000178004
0.000177997
0.000178001
0.000178021
0.000178062
0.000178134
0.000178257
0.000178464
0.0001769
0.000146177
0.000120909
0.000100146
8.30182e-05
6.891e-05
5.72864e-05
4.77045e-05
3.98016e-05
3.32789e-05
2.78913e-05
2.3437e-05
1.97507e-05
1.66998e-05
1.41648e-05
1.2034e-05
1.02311e-05
8.71211e-06
7.44294e-06
6.38872e-06
5.52177e-06
4.81293e-06
4.24962e-06
3.80554e-06
3.49189e-06
3.30548e-06
3.30251e-06
5.7948e-07
8.8455e-08
1.6229e-08
0.000178002
0.000177985
0.000177974
0.000177971
0.000177978
0.000178002
0.000178048
0.000178125
0.000178255
0.000178471
0.000177891
0.000147069
0.000121721
0.000100888
8.36924e-05
6.95227e-05
5.78442e-05
4.82135e-05
4.02673e-05
3.37065e-05
2.8285e-05
2.38006e-05
2.00876e-05
1.70126e-05
1.4457e-05
1.23089e-05
1.04896e-05
8.95401e-06
7.66877e-06
6.59955e-06
5.71956e-06
4.99939e-06
4.42717e-06
3.97712e-06
3.65711e-06
3.47673e-06
3.21494e-06
5.37112e-07
8.26148e-08
1.38757e-08
0.000177964
0.00017795
0.000177945
0.000177945
0.000177956
0.000177984
0.000178033
0.000178116
0.000178253
0.00017848
0.000178829
0.000147992
0.000122556
0.000101652
8.43868e-05
7.01538e-05
5.84189e-05
4.87383e-05
4.07483e-05
3.41487e-05
2.86931e-05
2.41785e-05
2.04386e-05
1.73397e-05
1.47633e-05
1.25975e-05
1.07616e-05
9.2094e-06
7.90835e-06
6.8246e-06
5.93213e-06
5.20159e-06
4.62088e-06
4.16548e-06
3.83707e-06
3.67494e-06
3.11931e-06
4.92888e-07
7.6727e-08
1.16217e-08
0.000177925
0.000177916
0.000177915
0.000177919
0.000177934
0.000177965
0.000178019
0.000178107
0.000178253
0.000178492
0.000178857
0.000148949
0.00012342
0.000102439
8.51012e-05
7.0803e-05
5.90103e-05
4.92788e-05
4.12442e-05
3.46056e-05
2.91155e-05
2.45706e-05
2.0804e-05
1.76813e-05
1.50841e-05
1.29001e-05
1.10474e-05
9.47884e-06
8.16246e-06
7.06496e-06
6.16074e-06
5.42108e-06
4.83266e-06
4.37152e-06
4.03185e-06
3.91786e-06
2.98777e-06
4.48066e-07
7.07105e-08
9.52461e-09
0.000177887
0.000177882
0.000177885
0.000177894
0.000177912
0.000177947
0.000178006
0.0001781
0.000178255
0.000178507
0.000178889
0.000149937
0.000124313
0.00010325
8.5836e-05
7.14703e-05
5.96182e-05
4.98349e-05
4.17551e-05
3.5077e-05
2.95524e-05
2.49772e-05
2.11838e-05
1.80374e-05
1.54195e-05
1.32174e-05
1.13478e-05
9.7632e-06
8.4322e-06
7.32188e-06
6.4067e-06
5.65943e-06
5.06444e-06
4.59524e-06
4.24231e-06
4.24004e-06
2.79489e-06
4.03956e-07
6.45381e-08
7.63473e-09
0.000177849
0.000177847
0.000177855
0.000177868
0.000177891
0.00017793
0.000177994
0.000178094
0.000178259
0.000178524
0.000178925
0.000150953
0.000125234
0.000104082
8.65893e-05
7.21539e-05
6.02413e-05
5.04053e-05
4.22798e-05
3.55619e-05
3.00026e-05
2.53971e-05
2.15775e-05
1.84079e-05
1.57698e-05
1.35496e-05
1.16634e-05
1.00632e-05
8.71821e-06
7.59604e-06
6.67115e-06
5.91834e-06
5.31785e-06
4.83522e-06
4.47247e-06
4.71092e-06
2.52969e-06
3.6168e-07
5.82865e-08
5.99075e-09
0.00017781
0.000177813
0.000177825
0.000177843
0.00017787
0.000177913
0.000177982
0.000178089
0.000178264
0.000178545
0.000178964
0.000152006
0.000126191
0.000104944
8.73677e-05
7.28594e-05
6.08838e-05
5.09934e-05
4.28212e-05
3.60628e-05
3.04686e-05
2.58329e-05
2.19872e-05
1.87952e-05
1.61371e-05
1.38987e-05
1.19956e-05
1.038e-05
9.02143e-06
7.88863e-06
6.95606e-06
6.20027e-06
5.5938e-06
5.08906e-06
4.73382e-06
5.48779e-06
2.20544e-06
3.22047e-07
5.206e-08
4.61444e-09
0.000177772
0.000177779
0.000177796
0.000177818
0.000177849
0.000177897
0.000177971
0.000178086
0.000178273
0.000178571
0.000179008
0.000153053
0.000127148
0.000105803
8.81438e-05
7.35633e-05
6.15262e-05
5.15831e-05
4.33659e-05
3.65691e-05
3.09419e-05
2.62777e-05
2.24073e-05
1.91942e-05
1.6517e-05
1.42606e-05
1.23409e-05
1.07109e-05
9.3403e-06
8.19898e-06
7.26188e-06
6.50608e-06
5.88995e-06
5.35326e-06
5.05026e-06
7.01945e-06
1.85623e-06
2.85516e-07
4.59655e-08
3.50583e-09
0.000177734
0.000177745
0.000177766
0.000177793
0.000177829
0.000177882
0.000177962
0.000178085
0.000178284
0.000178601
0.000179058
0.000154249
0.000128233
0.000106763
8.90045e-05
7.43376e-05
6.22285e-05
5.22238e-05
4.39548e-05
3.7114e-05
3.14494e-05
2.67532e-05
2.28557e-05
1.96195e-05
1.69215e-05
1.46457e-05
1.27086e-05
1.10641e-05
9.68225e-06
8.53407e-06
7.5959e-06
6.84135e-06
6.2043e-06
5.62985e-06
5.47846e-06
9.16e-06
1.5214e-06
2.52282e-07
4.01033e-08
2.64237e-09
0.000177696
0.000177712
0.000177738
0.000177769
0.000177809
0.000177867
0.000177953
0.000178086
0.000178299
0.000178636
0.000179112
0.000155452
0.000129331
0.000107742
8.98835e-05
7.51306e-05
6.29479e-05
5.28804e-05
4.4558e-05
3.76717e-05
3.19684e-05
2.72391e-05
2.33138e-05
2.0054e-05
1.73346e-05
1.50386e-05
1.30836e-05
1.14248e-05
1.00324e-05
8.87958e-06
7.94441e-06
7.18841e-06
6.5119e-06
5.91764e-06
6.11309e-06
7.74259e-06
1.22344e-06
2.22074e-07
3.45289e-08
1.982e-09
0.000179833
0.000179526
0.00017926
0.000179029
0.00017883
0.000178658
0.000178509
0.000179833
0.000179527
0.00017926
0.00017903
0.00017883
0.000178657
0.000178508
0.000179833
0.000179527
0.000179261
0.00017903
0.00017883
0.000178657
0.000178507
0.000179833
0.000179527
0.000179261
0.00017903
0.00017883
0.000178657
0.000178506
0.000179833
0.000179527
0.000179261
0.000179031
0.00017883
0.000178657
0.000178506
0.000179833
0.000179527
0.000179261
0.000179031
0.00017883
0.000178657
0.000178505
0.000179833
0.000179527
0.000179261
0.000179031
0.00017883
0.000178656
0.000178505
0.000179833
0.000179527
0.000179261
0.00017903
0.00017883
0.000178656
0.000178505
0.000179833
0.000179527
0.000179261
0.00017903
0.00017883
0.000178655
0.000178504
0.000179833
0.000179527
0.000179261
0.00017903
0.000178829
0.000178655
0.000178503
0.000179833
0.000179527
0.000179261
0.00017903
0.000178829
0.000178654
0.000178503
0.000179833
0.000179527
0.00017926
0.000179029
0.000178829
0.000178654
0.000178502
0.000179833
0.000179527
0.00017926
0.000179029
0.000178828
0.000178653
0.000178501
0.000179833
0.000179527
0.00017926
0.000179029
0.000178828
0.000178653
0.000178501
0.000179833
0.000179526
0.00017926
0.000179029
0.000178828
0.000178653
0.000178501
0.000179833
0.000179526
0.00017926
0.000179029
0.000178828
0.000178653
0.0001785
0.000179833
0.000179526
0.00017926
0.000179029
0.000178828
0.000178652
0.0001785
0.000179833
0.000179526
0.00017926
0.000179029
0.000178827
0.000178652
0.0001785
0.000179833
0.000179526
0.00017926
0.000179028
0.000178827
0.000178652
0.0001785
0.000179833
0.000179526
0.00017926
0.000179028
0.000178827
0.000178652
0.0001785
0.000179833
0.000179526
0.00017926
0.000179028
0.000178827
0.000178652
0.0001785
0.000179833
0.000179526
0.00017926
0.000179028
0.000178827
0.000178652
0.0001785
0.000179833
0.000179526
0.00017926
0.000179028
0.000178827
0.000178652
0.0001785
0.000179833
0.000179526
0.00017926
0.000179028
0.000178827
0.000178652
0.0001785
0.000179833
0.000179526
0.00017926
0.000179028
0.000178827
0.000178652
0.0001785
0.000179833
0.000179526
0.00017926
0.000179028
0.000178827
0.000178652
0.0001785
0.000179833
0.000179526
0.00017926
0.000179028
0.000178827
0.000178652
0.0001785
0.000179833
0.000179526
0.00017926
0.000179028
0.000178827
0.000178652
0.0001785
0.000179833
0.000179526
0.00017926
0.000179028
0.000178827
0.000178652
0.0001785
0.000179833
0.000179526
0.00017926
0.000179028
0.000178827
0.000178652
0.0001785
0.000179833
0.000179526
0.00017926
0.000179028
0.000178827
0.000178652
0.0001785
0.000179833
0.000179526
0.00017926
0.000179028
0.000178827
0.000178652
0.0001785
0.000179833
0.000179526
0.00017926
0.000179028
0.000178827
0.000178652
0.0001785
0.000179833
0.000179526
0.00017926
0.000179028
0.000178827
0.000178652
0.0001785
0.000179833
0.000179526
0.00017926
0.000179028
0.000178827
0.000178652
0.0001785
0.000179833
0.000179526
0.00017926
0.000179028
0.000178827
0.000178652
0.0001785
0.000179833
0.000179526
0.00017926
0.000179028
0.000178827
0.000178652
0.0001785
0.000179833
0.000179526
0.00017926
0.000179028
0.000178827
0.000178652
0.0001785
0.000179833
0.000179526
0.00017926
0.000179028
0.000178827
0.000178652
0.0001785
0.000179833
0.000179526
0.00017926
0.000179028
0.000178827
0.000178652
0.0001785
0.000178424
0.000178392
0.000178359
0.000178325
0.000178289
0.000178253
0.000178215
0.000178177
0.000178137
0.000178097
0.000178057
0.000178016
0.000177975
0.000177934
0.000177892
0.000177851
0.000177809
0.000177768
0.000177726
0.000177686
0.000178421
0.000178388
0.000178353
0.000178318
0.000178281
0.000178244
0.000178205
0.000178167
0.000178127
0.000178087
0.000178046
0.000178006
0.000177964
0.000177923
0.000177881
0.000177839
0.000177797
0.000177756
0.000177714
0.000177673
0.00017842
0.000178386
0.000178352
0.000178316
0.00017828
0.000178243
0.000178204
0.000178166
0.000178126
0.000178086
0.000178045
0.000178004
0.000177962
0.000177921
0.000177879
0.000177836
0.000177794
0.000177752
0.00017771
0.000177667
0.000178419
0.000178385
0.000178351
0.000178315
0.000178278
0.000178241
0.000178202
0.000178163
0.000178123
0.000178083
0.000178042
0.000178001
0.000177959
0.000177917
0.000177874
0.000177832
0.000177789
0.000177746
0.000177704
0.000177661
0.000178418
0.000178385
0.00017835
0.000178314
0.000178277
0.00017824
0.000178201
0.000178162
0.000178122
0.000178081
0.00017804
0.000177999
0.000177957
0.000177914
0.000177872
0.000177829
0.000177786
0.000177743
0.0001777
0.000177658
0.000178418
0.000178384
0.000178349
0.000178313
0.000178276
0.000178238
0.0001782
0.00017816
0.00017812
0.00017808
0.000178038
0.000177997
0.000177955
0.000177912
0.000177869
0.000177826
0.000177783
0.00017774
0.000177697
0.000177654
0.000178417
0.000178383
0.000178348
0.000178312
0.000178275
0.000178237
0.000178199
0.000178159
0.000178119
0.000178078
0.000178037
0.000177995
0.000177953
0.00017791
0.000177867
0.000177824
0.000177781
0.000177738
0.000177694
0.000177651
0.000178417
0.000178382
0.000178347
0.000178311
0.000178274
0.000178236
0.000178197
0.000178158
0.000178118
0.000178077
0.000178035
0.000177993
0.000177951
0.000177908
0.000177865
0.000177822
0.000177779
0.000177735
0.000177692
0.000177649
0.000178416
0.000178382
0.000178346
0.00017831
0.000178273
0.000178235
0.000178196
0.000178157
0.000178116
0.000178075
0.000178034
0.000177992
0.000177949
0.000177907
0.000177863
0.00017782
0.000177777
0.000177733
0.00017769
0.000177646
0.000178415
0.000178381
0.000178346
0.000178309
0.000178272
0.000178234
0.000178195
0.000178155
0.000178115
0.000178074
0.000178032
0.00017799
0.000177948
0.000177905
0.000177862
0.000177819
0.000177775
0.000177732
0.000177688
0.000177644
0.000178414
0.00017838
0.000178345
0.000178308
0.000178271
0.000178233
0.000178194
0.000178154
0.000178114
0.000178073
0.000178031
0.000177989
0.000177946
0.000177904
0.00017786
0.000177817
0.000177774
0.00017773
0.000177686
0.000177643
0.000178414
0.000178379
0.000178344
0.000178307
0.00017827
0.000178232
0.000178193
0.000178153
0.000178113
0.000178072
0.00017803
0.000177988
0.000177945
0.000177902
0.000177859
0.000177816
0.000177772
0.000177729
0.000177685
0.000177641
0.000178413
0.000178379
0.000178343
0.000178307
0.000178269
0.000178231
0.000178192
0.000178152
0.000178112
0.000178071
0.000178029
0.000177987
0.000177944
0.000177901
0.000177858
0.000177815
0.000177771
0.000177728
0.000177684
0.00017764
0.000178412
0.000178378
0.000178342
0.000178306
0.000178269
0.00017823
0.000178191
0.000178151
0.000178111
0.00017807
0.000178028
0.000177986
0.000177943
0.000177901
0.000177857
0.000177814
0.00017777
0.000177727
0.000177683
0.000177639
0.000178412
0.000178378
0.000178342
0.000178305
0.000178268
0.00017823
0.000178191
0.000178151
0.00017811
0.000178069
0.000178027
0.000177985
0.000177943
0.0001779
0.000177857
0.000177813
0.00017777
0.000177726
0.000177682
0.000177639
0.000178412
0.000178377
0.000178342
0.000178305
0.000178267
0.000178229
0.00017819
0.00017815
0.00017811
0.000178068
0.000178027
0.000177985
0.000177942
0.000177899
0.000177856
0.000177813
0.000177769
0.000177725
0.000177682
0.000177638
0.000178412
0.000178377
0.000178341
0.000178305
0.000178267
0.000178229
0.000178189
0.00017815
0.000178109
0.000178068
0.000178026
0.000177984
0.000177942
0.000177899
0.000177855
0.000177812
0.000177769
0.000177725
0.000177681
0.000177638
0.000178411
0.000178377
0.000178341
0.000178304
0.000178267
0.000178228
0.000178189
0.000178149
0.000178108
0.000178067
0.000178026
0.000177984
0.000177941
0.000177898
0.000177855
0.000177812
0.000177768
0.000177725
0.000177681
0.000177637
0.000178411
0.000178376
0.00017834
0.000178304
0.000178266
0.000178228
0.000178188
0.000178149
0.000178108
0.000178067
0.000178025
0.000177983
0.00017794
0.000177898
0.000177855
0.000177811
0.000177768
0.000177724
0.000177681
0.000177637
0.000178411
0.000178376
0.00017834
0.000178303
0.000178266
0.000178227
0.000178188
0.000178148
0.000178107
0.000178066
0.000178025
0.000177983
0.00017794
0.000177897
0.000177854
0.000177811
0.000177767
0.000177724
0.00017768
0.000177637
0.000178411
0.000178376
0.00017834
0.000178303
0.000178265
0.000178227
0.000178187
0.000178147
0.000178107
0.000178066
0.000178024
0.000177982
0.00017794
0.000177897
0.000177854
0.00017781
0.000177767
0.000177724
0.00017768
0.000177637
0.000178411
0.000178376
0.00017834
0.000178303
0.000178265
0.000178226
0.000178187
0.000178147
0.000178106
0.000178065
0.000178024
0.000177981
0.000177939
0.000177896
0.000177853
0.00017781
0.000177767