/*--------------------------------*- C++ -*----------------------------------*\
| =========                 |                                                 |
| \\      /  F ield         | OpenFOAM: The Open Source CFD Toolbox           |
|  \\    /   O peration     | Version:  v2006                                 |
|   \\  /    A nd           | Website:  www.openfoam.com                      |
|    \\/     M anipulation  |                                                 |
\*---------------------------------------------------------------------------*/
FoamFile
{
    version     2.0;
    format      ascii;
    class       volScalarField;
    location    "269";
    object      omega;
}
// * * * * * * * * * * * * * * * * * * * * * * * * * * * * * * * * * * * * * //

dimensions      [0 0 -1 0 0 0 0];


internalField   nonuniform List<scalar> 
26820
(
262.481
258.543
255.158
252.243
249.726
247.549
245.662
262.477
258.534
255.144
252.224
249.704
247.523
245.633
262.471
258.515
255.115
252.187
249.659
247.473
245.575
262.461
258.487
255.072
252.131
249.592
247.397
245.489
262.448
258.45
255.014
252.056
249.502
247.297
245.374
262.432
258.404
254.942
251.963
249.391
247.172
245.231
262.413
258.348
254.856
251.851
249.258
247.022
245.061
262.39
258.283
254.756
251.722
249.103
246.848
244.862
262.365
258.21
254.642
251.575
248.928
246.651
244.637
262.336
258.128
254.515
251.41
248.731
246.43
244.385
262.305
258.037
254.375
251.229
248.514
246.186
244.108
262.27
257.937
254.221
251.031
248.278
245.92
243.805
262.233
257.83
254.055
250.816
248.021
245.632
243.477
262.193
257.714
253.877
250.585
247.746
245.323
243.125
262.15
257.59
253.686
250.339
247.453
244.993
242.751
262.104
257.459
253.484
250.078
247.142
244.644
242.353
262.056
257.321
253.27
249.802
246.813
244.275
241.935
262.006
257.175
253.046
249.512
246.468
243.887
241.495
261.952
257.022
252.81
249.208
246.107
243.48
241.036
261.897
256.862
252.564
248.889
245.729
243.046
240.567
243.94
242.315
240.872
239.598
238.481
237.516
236.701
236.037
235.529
235.182
235.014
235.059
235.366
236.01
237.096
238.773
241.248
244.811
249.869
256.996
266.967
281.03
300.179
324.165
354.09
391.88
440.445
504.212
590.124
709.597
882.218
1144.82
1567.48
2326.79
3766.96
6079.92
9838.5
37779.6
317700
2.69208e+06
243.913
242.29
240.849
239.577
238.463
237.499
236.686
236.023
235.515
235.169
235.002
235.046
235.352
235.994
237.078
238.751
241.221
244.777
249.825
256.937
266.889
280.918
300.062
324.044
353.961
391.734
440.269
503.985
589.814
709.148
881.527
1143.69
1565.47
2323.13
3757.2
6063.04
9817.22
37837
318767
2.69211e+06
243.858
242.24
240.805
239.537
238.427
237.467
236.657
235.997
235.492
235.148
234.983
235.029
235.337
235.981
237.066
238.74
241.211
244.769
249.817
256.93
266.883
280.905
300.062
324.064
354.004
391.804
440.37
504.119
589.981
709.345
881.733
1143.86
1565.4
2322.77
3752.49
6052.37
9808.61
37928.7
319320
2.69214e+06
243.777
242.166
240.738
239.477
238.373
237.419
236.614
235.959
235.459
235.119
234.958
235.007
235.319
235.968
237.058
238.738
241.216
244.781
249.84
256.966
266.935
280.975
300.175
324.231
354.235
392.115
440.781
504.66
590.698
710.305
883.039
1145.69
1567.96
2327.24
3755.12
6051.76
9819.77
38104.7
319902
2.69218e+06
243.668
242.067
240.649
239.398
238.302
237.356
236.557
235.909
235.414
235.08
234.924
234.979
235.296
235.95
237.046
238.734
241.22
244.796
249.867
257.008
266.999
281.058
300.327
324.468
354.572
392.571
441.388
505.467
591.78
711.781
885.103
1148.71
1572.44
2335.53
3762.11
6056.38
9845.18
38391.5
320794
2.69222e+06
243.533
241.944
240.539
239.299
238.213
237.276
236.487
235.846
235.359
235.032
234.882
234.944
235.267
235.928
237.032
238.728
241.224
244.812
249.898
257.058
267.074
281.154
300.509
324.762
354.998
393.156
442.173
506.518
593.199
713.736
887.87
1152.81
1578.7
2347.44
3773.18
6065.62
9884.56
38803.8
322079
2.69227e+06
243.371
241.797
240.406
239.18
238.107
237.181
236.402
235.771
235.293
234.974
234.832
234.902
235.233
235.902
237.015
238.721
241.229
244.832
249.937
257.12
267.166
281.273
300.732
325.12
355.518
393.874
443.143
507.823
594.97
716.189
891.37
1158.06
1586.8
2363.06
3788.71
6080.1
9939.59
39349
323771
2.69232e+06
243.183
241.626
240.253
239.042
237.984
237.071
236.304
235.684
235.216
234.907
234.775
234.853
235.194
235.873
236.996
238.715
241.238
244.858
249.985
257.195
267.278
281.419
300.999
325.546
356.136
394.729
444.302
509.386
597.1
719.152
895.618
1164.47
1596.78
2382.44
3808.74
6100.08
10011.6
40031
325867
2.69236e+06
242.97
241.432
240.078
238.886
237.844
236.946
236.193
235.586
235.129
234.831
234.71
234.798
235.15
235.84
236.976
238.709
241.249
244.89
250.043
257.284
267.411
281.591
301.314
326.045
356.857
395.724
445.651
511.212
599.594
722.632
900.625
1172.06
1608.66
2405.63
3833.17
6125.46
10101.8
40852.8
328356
2.69241e+06
242.732
241.215
239.883
238.711
237.687
236.806
236.068
235.475
235.032
234.746
234.637
234.737
235.101
235.804
236.955
238.704
241.263
244.928
250.11
257.388
267.565
281.791
301.678
326.619
357.685
396.867
447.199
513.307
602.461
726.641
906.41
1180.85
1622.51
2432.72
3861.94
6156.18
10211.6
41818.7
331231
2.69245e+06
242.469
240.976
239.668
238.518
237.514
236.652
235.931
235.353
234.925
234.653
234.557
234.671
235.048
235.765
236.932
238.699
241.281
244.972
250.188
257.508
267.742
282.021
302.094
327.274
358.627
398.163
448.954
515.683
605.714
731.199
913.002
1190.9
1638.4
2463.85
3895.07
6192.27
10342.8
42934.3
334485
2.6925e+06
242.182
240.714
239.433
238.307
237.326
236.484
235.781
235.221
234.808
234.552
234.47
234.598
234.991
235.724
236.908
238.696
241.302
245.023
250.277
257.644
267.942
282.281
302.564
328.013
359.687
399.62
450.925
518.351
609.37
736.327
920.433
1202.25
1656.42
2499.22
3932.65
6233.85
10497.8
44207.4
338117
2.69254e+06
241.872
240.432
239.179
238.079
237.122
236.301
235.618
235.077
234.682
234.442
234.376
234.52
234.929
235.68
236.884
238.695
241.328
245.083
250.378
257.797
268.167
282.573
303.092
328.844
360.874
401.248
453.124
521.326
613.449
742.054
928.746
1214.97
1676.73
2538.99
3974.74
6281.17
10679.6
45647.6
342130
2.69258e+06
241.539
240.128
238.906
237.835
236.903
236.106
235.444
234.923
234.547
234.324
234.276
234.437
234.864
235.634
236.859
238.695
241.358
245.15
250.492
257.969
268.418
282.906
303.608
329.736
362.189
403.057
455.565
524.626
617.974
748.412
937.991
1229.15
1699.41
2584.13
4021.82
6334.63
10891.5
47265.2
346532
2.69262e+06
241.184
239.805
238.615
237.574
236.669
235.897
235.259
234.759
234.403
234.2
234.17
234.35
234.795
235.586
236.835
238.698
241.394
245.226
250.619
258.162
268.697
283.284
304.133
330.678
363.623
405.052
458.262
528.27
622.971
755.44
948.227
1244.87
1724.84
2628.86
4072.79
6394.69
11136.1
49063.6
351348
2.69266e+06
240.808
239.462
238.306
237.297
236.422
235.676
235.062
234.585
234.25
234.068
234.058
234.257
234.723
235.537
236.811
238.704
241.436
245.313
250.762
258.375
269.005
283.709
304.692
331.678
365.174
407.238
461.228
532.281
628.472
763.182
959.522
1262.23
1753.43
2671.91
4126.39
6461.71
11418.4
51060.2
356589
2.69269e+06
240.411
239.101
237.981
237.005
236.16
235.443
234.855
234.402
234.09
233.929
233.94
234.161
234.649
235.487
236.788
238.713
241.484
245.41
250.92
258.612
269.344
284.182
305.303
332.753
366.849
409.621
464.478
536.681
634.509
771.688
971.954
1281.35
1785.5
2714.67
4182.12
6536.12
11744.8
53276.6
362269
2.69272e+06
239.995
238.721
237.639
236.699
235.886
235.198
234.638
234.21
233.922
233.784
233.817
234.061
234.573
235.436
236.767
238.727
241.54
245.519
251.096
258.874
269.718
284.705
305.977
333.92
368.663
412.211
468.026
541.496
641.123
781.014
985.614
1302.39
1821.33
2758.6
4240.14
6618.64
12122.7
55736.9
368403
2.69274e+06
239.558
238.324
237.282
236.379
235.6
234.943
234.41
234.009
233.747
233.633
233.69
233.957
234.494
235.385
236.748
238.745
241.605
245.641
251.291
259.163
270.128
285.281
306.719
335.196
370.632
415.024
471.892
546.754
648.355
791.226
1000.61
1325.49
1861.19
2804.83
4300.96
6710.43
12561.3
58468.2
375010
2.69276e+06
239.123
237.91
236.907
236.045
235.302
234.677
234.174
233.801
233.565
233.476
233.558
233.851
234.415
235.335
236.732
238.77
241.679
245.777
251.507
259.481
270.579
285.914
307.536
336.597
372.777
418.081
476.098
552.488
656.254
802.398
1017.04
1350.89
1905.34
2854.16
4365.29
6813.16
13071.5
61501
382113
2.69277e+06
238.572
237.524
236.537
235.699
234.991
234.4
233.929
233.585
233.376
233.315
233.423
233.742
234.334
235.286
236.719
238.801
241.763
245.929
251.746
259.832
271.073
286.607
308.435
338.134
375.119
421.406
480.673
558.734
664.875
814.614
1035.07
1378.8
1954.41
2907.39
4433.95
6929.08
13666.6
64871.3
389760
2.69277e+06
238.018
237.097
236.163
235.349
234.671
234.114
233.676
233.362
233.183
233.149
233.284
233.631
234.253
235.239
236.711
238.839
241.86
246.098
252.009
260.216
271.616
287.366
309.421
339.837
377.687
425.029
485.65
565.536
674.28
827.968
1054.82
1409.61
2003.28
2964.29
4507.86
7061.14
14362.4
68610.7
397816
2.69276e+06
237.475
236.634
235.772
234.993
234.343
233.819
233.415
233.133
232.983
232.978
233.143
233.519
234.173
235.194
236.708
238.886
241.969
246.287
252.299
260.639
272.21
288.196
310.507
341.577
380.475
428.98
491.067
572.942
684.539
842.57
1076.49
1443.66
2052.01
3024.63
4587.93
7213.17
15178.7
72792.8
407908
2.69275e+06
236.937
236.149
235.361
234.628
234.009
233.517
233.146
232.898
232.779
232.805
232.999
233.406
234.094
235.153
236.71
238.943
242.093
246.496
252.618
261.102
272.862
289.105
311.706
343.368
383.479
433.289
496.97
581.011
695.734
858.546
1100.27
1481.58
2101.63
3088.51
4675.16
7390.02
16137.9
77481.6
420912
2.69272e+06
236.399
235.651
234.931
234.252
233.669
233.209
232.871
232.657
232.571
232.628
232.854
233.293
234.016
235.115
236.72
239.011
242.233
246.729
252.971
261.611
273.575
290.098
313.031
345.25
386.706
437.981
503.405
589.808
707.958
876.039
1126.41
1522.27
2152.99
3156.34
4770.72
7598.03
17279.9
83066.7
436043
2.69269e+06
235.855
235.145
234.486
233.865
233.322
232.895
232.591
232.411
232.36
232.449
232.707
233.181
233.941
235.082
236.738
239.091
242.391
246.987
253.359
262.17
274.357
291.183
314.491
347.26
390.225
443.103
510.428
599.407
721.318
895.22
1155.22
1563.7
2206.57
3228.79
4876.14
7844.83
18607.6
87678.1
454541
2.69265e+06
235.305
234.634
234.029
233.466
232.968
232.576
232.306
232.161
232.145
232.268
232.56
233.07
233.869
235.056
236.766
239.185
242.57
247.274
253.786
262.782
275.214
292.371
316.099
349.437
393.832
448.654
518.096
609.896
735.944
916.253
1187.15
1606.16
2262.83
3306.68
4993.42
8140.83
20186.3
90999.9
475797
2.69261e+06
234.746
234.117
233.563
233.057
232.607
232.252
232.017
231.908
231.927
232.086
232.414
232.961
233.801
235.036
236.803
239.294
242.77
247.591
254.257
263.455
276.153
293.671
317.867
351.818
397.549
454.709
526.477
621.36
751.949
939.54
1220.07
1650.1
2322.36
3390.99
5125.15
8497.87
21566.5
93853.9
498749
2.69256e+06
234.178
233.595
233.09
232.639
232.238
231.924
231.725
231.653
231.708
231.904
232.268
232.854
233.738
235.024
236.853
239.421
242.995
247.943
254.775
264.193
277.183
295.094
319.81
354.434
401.45
460.978
535.685
633.975
769.656
964.424
1253.93
1696
2385.87
3482.87
5274.74
8884.96
22586.1
96876.9
522450
2.69251e+06
233.603
233.067
232.611
232.214
231.864
231.592
231.431
231.395
231.489
231.722
232.125
232.751
233.682
235.022
236.917
239.568
243.248
248.334
255.347
265.005
278.314
296.655
321.946
357.315
405.614
467.447
545.328
647.546
788.419
990.186
1289.07
1744.44
2454.19
3583.89
5442.3
9215.88
23288.7
100524
546135
2.69246e+06
233.02
232.535
232.128
231.783
231.484
231.256
231.134
231.136
231.268
231.541
231.983
232.653
233.632
235.03
236.996
239.736
243.531
248.767
255.977
265.897
279.555
298.369
324.293
360.493
410.112
474.209
555.306
661.637
807.886
1016.94
1325.93
1796.06
2528.4
3694.93
5611.14
9472.93
23718.1
105154
569175
2.6924e+06
232.431
231.999
231.641
231.348
231.1
230.917
230.836
230.877
231.049
231.362
231.846
232.56
233.591
235.05
237.093
239.929
243.848
249.247
256.672
266.879
280.92
300.251
326.876
364.001
415.014
481.379
565.722
676.304
828.188
1045.01
1365.03
1851.67
2609.19
3815.26
5779.7
9623.96
23974.6
111025
591017
2.69235e+06
231.837
231.459
231.152
230.91
230.712
230.576
230.536
230.618
230.831
231.185
231.712
232.474
233.56
235.085
237.209
240.15
244.204
249.78
257.44
267.96
282.422
302.323
329.72
367.876
420.386
489.071
576.723
691.723
849.573
1074.78
1406.94
1911.68
2697.73
3947.27
5941.59
9630.83
24230.4
118289
611142
2.6923e+06
231.239
230.916
230.66
230.469
230.322
230.233
230.237
230.361
230.615
231.012
231.584
232.396
233.54
235.135
237.348
240.401
244.602
250.371
258.288
269.152
284.077
304.604
332.856
372.162
426.297
497.399
588.468
708.112
872.353
1106.57
1452.04
1977.19
2796.05
4093.5
6080.49
9463.85
24727.6
126980
629030
2.69226e+06
230.639
230.371
230.168
230.028
229.931
229.89
229.938
230.105
230.403
230.844
231.463
232.327
233.532
235.203
237.511
240.687
245.048
251.028
259.227
270.469
285.904
307.122
336.318
376.907
432.825
506.484
601.132
725.665
896.752
1140.86
1501.12
2049.44
2906.96
4254.97
6167.05
9122.23
25766.5
137002
644154
2.69221e+06
230.036
229.824
229.675
229.586
229.54
229.546
229.64
229.852
230.194
230.682
231.349
232.268
233.54
235.292
237.703
241.011
245.547
251.758
260.266
271.925
287.922
309.905
340.15
382.169
440.051
516.436
614.853
744.624
923.152
1178.17
1555.01
2130.1
3034.25
4427.82
6159.91
8658.37
27681.9
148120
655983
2.69218e+06
229.433
229.277
229.182
229.145
229.149
229.204
229.345
229.602
229.991
230.526
231.244
232.222
233.564
235.404
237.926
241.38
246.105
252.571
261.419
273.537
290.156
312.987
344.393
388.011
448.064
527.38
629.823
765.263
951.96
1219.12
1614.69
2221.65
3182.31
4598.51
6013.47
8201.55
30808.5
159957
663996
2.69215e+06
228.829
228.731
228.69
228.705
228.76
228.864
229.053
229.357
229.794
230.378
231.15
232.19
233.607
235.541
238.185
241.797
246.732
253.477
262.7
275.324
292.631
316.401
349.103
394.517
456.971
539.461
646.256
787.895
983.64
1264.37
1681.46
2327.87
3354.07
4739.11
5695.81
7980.34
35434.8
172002
667737
2.69212e+06
228.227
228.186
228.201
228.268
228.374
228.528
228.765
229.118
229.604
230.24
231.068
232.174
233.673
235.709
238.485
242.271
247.436
254.489
264.127
277.313
295.385
320.2
354.356
401.788
466.903
552.859
664.406
812.888
1018.72
1314.7
1757.23
2454.07
3547.53
4806.47
5216.03
8317.44
41727.9
183612
666854
2.6921e+06
227.627
227.644
227.715
227.834
227.99
228.195
228.482
228.885
229.421
230.111
230.998
232.173
233.758
235.905
238.823
242.797
248.212
255.601
265.692
279.495
298.411
324.38
360.159
409.845
477.895
567.639
684.412
840.5
1057.61
1370.99
1845.41
2606.28
3746.75
4743.76
4657.72
9607.82
49839.6
194237
661415
2.69211e+06
261.849
256.767
252.431
248.725
245.546
242.817
240.455
261.849
256.766
252.431
248.724
245.545
242.809
240.456
261.849
256.767
252.431
248.725
245.546
242.811
240.456
261.849
256.767
252.432
248.725
245.547
242.811
240.455
261.849
256.767
252.432
248.725
245.547
242.81
240.454
261.849
256.767
252.431
248.725
245.546
242.81
240.452
261.848
256.766
252.431
248.725
245.546
242.808
240.45
261.848
256.766
252.431
248.724
245.544
242.807
240.448
261.848
256.766
252.43
248.723
245.543
242.805
240.445
261.848
256.765
252.429
248.722
245.541
242.802
240.442
261.848
256.765
252.428
248.721
245.54
242.8
240.439
261.848
256.764
252.428
248.72
245.538
242.798
240.436
261.848
256.764
252.427
248.718
245.536
242.795
240.433
261.848
256.764
252.427
248.718
245.535
242.794
240.431
261.848
256.764
252.426
248.717
245.534
242.792
240.429
261.848
256.763
252.426
248.716
245.533
242.791
240.427
261.848
256.763
252.425
248.716
245.532
242.79
240.426
261.848
256.763
252.425
248.715
245.532
242.789
240.424
261.848
256.763
252.425
248.715
245.531
242.788
240.424
261.847
256.763
252.425
248.715
245.531
242.788
240.423
261.847
256.763
252.425
248.715
245.531
242.787
240.422
261.847
256.763
252.425
248.715
245.53
242.787
240.422
261.847
256.763
252.425
248.714
245.53
242.787
240.422
261.847
256.763
252.425
248.714
245.53
242.787
240.422
261.847
256.763
252.425
248.714
245.53
242.787
240.422
261.847
256.763
252.425
248.714
245.53
242.787
240.421
261.847
256.763
252.425
248.714
245.53
242.787
240.421
261.847
256.763
252.425
248.714
245.53
242.787
240.421
261.847
256.763
252.425
248.714
245.53
242.786
240.421
261.847
256.763
252.425
248.714
245.53
242.786
240.421
261.847
256.763
252.425
248.714
245.53
242.786
240.421
261.847
256.763
252.425
248.714
245.53
242.786
240.421
261.847
256.763
252.425
248.714
245.53
242.786
240.421
261.847
256.763
252.425
248.714
245.53
242.786
240.421
261.847
256.763
252.425
248.714
245.53
242.786
240.421
261.847
256.763
252.425
248.714
245.53
242.786
240.421
261.847
256.763
252.425
248.714
245.53
242.786
240.421
261.847
256.763
252.425
248.714
245.53
242.786
240.421
261.847
256.763
252.425
248.714
245.53
242.786
240.421
261.847
256.763
252.425
248.714
245.53
242.786
240.421
239.13
238.631
238.115
237.582
237.03
236.461
235.877
235.281
234.673
234.056
233.43
232.799
232.162
231.522
230.879
230.235
229.592
228.949
228.31
227.675
239.103
238.582
238.044
237.491
236.924
236.345
235.755
235.154
234.545
233.928
233.305
232.675
232.042
231.405
230.765
230.124
229.483
228.842
228.204
227.568
239.103
238.582
238.046
237.495
236.93
236.353
235.764
235.165
234.557
233.94
233.316
232.687
232.052
231.414
230.773
230.13
229.487
228.845
228.204
227.566
239.101
238.579
238.042
237.49
236.924
236.346
235.756
235.156
234.546
233.929
233.304
232.673
232.038
231.399
230.757
230.113
229.469
228.826
228.184
227.545
239.099
238.576
238.038
237.486
236.92
236.341
235.75
235.15
234.54
233.922
233.296
232.665
232.029
231.389
230.747
230.102
229.458
228.813
228.171
227.531
239.097
238.573
238.035
237.481
236.915
236.335
235.745
235.143
234.533
233.914
233.289
232.657
232.02
231.38
230.737
230.092
229.447
228.802
228.158
227.518
239.094
238.57
238.03
237.477
236.91
236.33
235.738
235.137
234.526
233.907
233.281
232.649
232.012
231.371
230.727
230.082
229.436
228.791
228.147
227.506
239.091
238.566
238.026
237.472
236.904
236.324
235.732
235.13
234.519
233.899
233.273
232.64
232.003
231.362
230.718
230.073
229.426
228.781
228.136
227.495
239.087
238.562
238.021
237.466
236.898
236.317
235.725
235.123
234.511
233.891
233.265
232.632
231.994
231.353
230.709
230.063
229.417
228.771
228.126
227.484
239.083
238.557
238.016
237.46
236.892
236.31
235.718
235.115
234.503
233.883
233.256
232.623
231.986
231.344
230.7
230.054
229.407
228.761
228.116
227.474
239.08
238.552
238.011
237.455
236.885
236.304
235.711
235.108
234.496
233.875
233.248
232.615
231.977
231.336
230.691
230.045
229.399
228.752
228.107
227.465
239.076
238.548
238.005
237.449
236.879
236.297
235.704
235.1
234.488
233.867
233.24
232.607
231.969
231.327
230.683
230.037
229.39
228.744
228.099
227.457
239.072
238.544
238
237.443
236.873
236.29
235.697
235.093
234.48
233.86
233.232
232.599
231.961
231.32
230.675
230.029
229.383
228.737
228.092
227.449
239.069
238.539
237.995
237.438
236.867
236.284
235.69
235.086
234.473
233.852
233.225
232.592
231.954
231.312
230.668
230.022
229.376
228.73
228.085
227.443
239.066
238.536
237.991
237.432
236.861
236.277
235.683
235.079
234.466
233.845
233.218
232.585
231.947
231.306
230.662
230.016
229.37
228.724
228.079
227.438
239.064
238.532
237.986
237.427
236.855
236.271
235.676
235.072
234.459
233.838
233.211
232.578
231.94
231.299
230.655
230.01
229.364
228.719
228.074
227.433
239.062
238.529
237.982
237.422
236.849
236.265
235.67
235.065
234.452
233.831
233.204
232.571
231.934
231.293
230.649
230.004
229.359
228.714
228.07
227.429
239.06
238.526
237.978
237.417
236.844
236.259
235.663
235.058
234.445
233.824
233.197
232.564
231.927
231.287
230.644
229.999
229.354
228.71
228.066
227.426
239.058
238.523
237.974
237.412
236.838
236.252
235.656
235.051
234.438
233.817
233.19
232.558
231.921
231.281
230.638
229.994
229.35
228.706
228.063
227.423
239.057
238.52
237.97
237.407
236.832
236.246
235.649
235.044
234.43
233.81
233.183
232.551
231.914
231.275
230.633
229.989
229.345
228.702
228.06
227.421
239.055
238.517
237.965
237.401
236.825
236.238
235.642
235.036
234.422
233.802
233.175
232.543
231.907
231.268
230.627
229.984
229.341
228.699
228.058
227.419
239.054
238.513
237.96
237.395
236.818
236.231
235.634
235.028
234.414
233.793
233.167
232.536
231.9
231.262
230.621
229.979
229.337
228.695
228.055
227.418
239.053
238.51
237.955
237.389
236.811
236.223
235.625
235.019
234.405
233.784
233.158
232.527
231.892
231.255
230.615
229.974
229.333
228.692
228.053
227.416
239.051
238.506
237.95
237.382
236.803
236.214
235.615
235.009
234.395
233.774
233.149
232.518
231.884
231.247
230.608
229.968
229.328
228.688
228.05
227.415
239.05
238.503
237.944
237.374
236.794
236.204
235.605
234.998
234.384
233.764
233.138
232.508
231.875
231.239
230.601
229.962
229.323
228.685
228.048
227.414
239.048
238.498
237.938
237.366
236.784
236.193
235.593
234.986
234.372
233.752
233.127
232.498
231.865
231.23
230.593
229.955
229.318
228.681
228.046
227.413
239.046
238.494
237.93
237.357
236.773
236.181
235.581
234.973
234.359
233.739
233.114
232.486
231.854
231.22
230.584
229.948
229.312
228.677
228.043
227.412
239.045
238.489
237.923
237.347
236.762
236.168
235.567
234.958
234.344
233.725
233.1
232.473
231.842
231.209
230.575
229.94
229.306
228.672
228.04
227.411
239.043
238.483
237.914
237.336
236.749
236.154
235.551
234.943
234.328
233.709
233.085
232.458
231.829
231.197
230.565
229.932
229.299
228.667
228.037
227.41
239.04
238.477
237.904
237.323
236.734
236.138
235.534
234.925
234.31
233.691
233.068
232.442
231.814
231.184
230.553
229.922
229.291
228.662
228.034
227.409
239.038
238.47
237.894
237.31
236.718
236.12
235.516
234.906
234.291
233.672
233.05
232.425
231.798
231.17
230.541
229.911
229.283
228.655
228.03
227.407
239.035
238.462
237.882
237.295
236.701
236.101
235.495
234.884
234.269
233.651
233.029
232.406
231.78
231.154
230.527
229.9
229.274
228.649
228.026
227.406
239.032
238.454
237.869
237.278
236.681
236.079
235.472
234.861
234.246
233.627
233.007
232.384
231.761
231.136
230.511
229.887
229.263
228.641
228.021
227.404
239.029
238.445
237.855
237.26
236.66
236.055
235.447
234.834
234.219
233.602
232.982
232.361
231.739
231.116
230.494
229.873
229.252
228.633
228.016
227.403
239.026
238.435
237.839
237.24
236.636
236.029
235.419
234.806
234.19
233.573
232.954
232.335
231.715
231.095
230.475
229.857
229.24
228.624
228.011
227.401
239.022
238.423
237.822
237.218
236.61
236
235.388
234.774
234.158
233.541
232.924
232.306
231.688
231.071
230.455
229.84
229.226
228.614
228.005
227.399
239.017
238.411
237.803
237.193
236.581
235.968
235.354
234.738
234.122
233.506
232.89
232.274
231.659
231.045
230.432
229.82
229.211
228.603
227.998
227.397
239.012
238.397
237.782
237.166
236.55
235.933
235.316
234.699
234.083
233.468
232.853
232.239
231.627
231.016
230.406
229.799
229.194
228.591
227.991
227.394
239.007
238.382
237.758
237.136
236.514
235.894
235.274
234.656
234.04
233.425
232.812
232.2
231.591
230.983
230.378
229.776
229.175
228.578
227.983
227.391
239.001
238.365
237.733
237.103
236.475
235.851
235.228
234.609
233.992
233.378
232.766
232.157
231.551
230.948
230.347
229.75
229.155
228.563
227.974
227.389
2.74e+06
2.73999e+06
2.73999e+06
2.73999e+06
2.73998e+06
2.73998e+06
2.73998e+06
2.73998e+06
2.73998e+06
2.73998e+06
2.73998e+06
2.73998e+06
2.73998e+06
2.73998e+06
2.73998e+06
2.73998e+06
2.73998e+06
2.73998e+06
2.73998e+06
2.73998e+06
2.73997e+06
2.73997e+06
2.73997e+06
2.73997e+06
2.73997e+06
2.73997e+06
2.73997e+06
2.73997e+06
2.73997e+06
2.73997e+06
2.73997e+06
2.73997e+06
2.73997e+06
2.73997e+06
2.73997e+06
2.73997e+06
2.73997e+06
2.73997e+06
2.73997e+06
2.73997e+06
2.73997e+06
2.73997e+06
2.73997e+06
2.73997e+06
2.73997e+06
2.73997e+06
2.73997e+06
2.73997e+06
2.73997e+06
2.73997e+06
2.73997e+06
2.73997e+06
2.73997e+06
2.73997e+06
2.73997e+06
2.73997e+06
2.73997e+06
2.73997e+06
2.73997e+06
2.73997e+06
2.73997e+06
2.73997e+06
2.73997e+06
2.73997e+06
2.73997e+06
2.73997e+06
2.73997e+06
2.73997e+06
2.73997e+06
2.73997e+06
2.73997e+06
2.73997e+06
2.73997e+06
2.73997e+06
2.73997e+06
2.73997e+06
2.73997e+06
2.73997e+06
2.73997e+06
2.73997e+06
653228
626195
593310
562926
537993
518443
503182
491136
481576
474039
468163
463602
460020
457143
454782
452830
451222
449913
448904
448125
447479
446933
446469
446078
445862
445694
445551
445432
445333
445250
445182
445127
445086
445058
445042
445038
445047
445068
445101
445146
445201
445266
445339
445418
445501
445585
445668
445748
445823
445892
445953
446005
446050
446086
446114
446135
446150
446176
446196
446207
446211
446208
446201
446190
446175
446159
446140
446120
446100
446079
446057
446036
446014
445993
445973
445952
445933
445914
445895
445877
201847
204172
202694
198595
193215
187593
182313
177579
173379
169618
166211
163115
160323
157836
155649
153734
152056
150580
149285
148153
147161
146294
145539
144879
144053
143249
142544
141965
141494
141088
140739
140442
140192
139983
139812
139676
139573
139501
139458
139441
139448
139478
139526
139590
139664
139747
139832
139917
139999
140074
140140
140195
140238
140270
140289
140297
140295
140256
140213
140168
140120
140070
140018
139965
139911
139857
139802
139747
139693
139639
139585
139533
139482
139431
139382
139334
139288
139243
139199
139157
58418.3
66236.2
74009.2
81234.8
87539.1
92757.9
96886.9
99999.7
102184
103513
104046
103842
102976
101548
99674.5
97482.8
95095.3
92621.1
90151.1
87754.4
85477.9
83349.8
81383.8
79585.2
77909.3
76358.4
74948.5
73643.3
72422.1
71311.3
70336.2
69482.3
68724.1
68052.3
67458.4
66934.5
66474.6
66073.5
65726.2
65428.2
65175.6
64964.5
64790.7
64650.1
64538.1
64450.1
64381.4
64327.2
64283.1
64244.8
64208.6
64171.3
64130.5
64084.2
64031.3
63972.7
63899.6
63807
63708
63605.5
63499.9
63391.5
63280.7
63168
63054.1
62939.3
62824.2
62709.4
62595.3
62482.2
62370.5
62260.5
62152.5
62046.7
61943.2
61842.3
61743.9
61648.2
61555.4
61465.4
11789.2
14547.8
18250.5
22792.8
28022.5
33708.7
39601.5
45472.4
51128.2
56405.8
61173.6
65327.4
68789.7
71511.7
73475.4
74694.3
75211.7
75096.4
74436.4
73331.1
71882.9
70190.6
68343.1
66416.5
64467.2
62537.2
60660.5
58856.9
57136.8
55512.2
53973.9
52523.8
51170.6
49929.8
48791.1
47741.7
46775.4
45886.8
45070.3
44320.6
43633.7
43006.1
42434.7
41916.2
41447.2
41024.1
40643.1
40300.3
39991.6
39712.5
39458.8
39226.3
39011.1
38809.4
38618.4
38434.7
38249.3
38062
37875.6
37690.9
37507.5
37324.7
37142.3
36960.2
36778.4
36597.1
36416.6
36237.2
36059.3
35883.1
35709.1
35537.4
35368.5
35202.6
35039.9
34880.7
34725
34573.1
34425.1
34281.1
4223.31
4036.3
4166.04
4743.13
5828.79
7477.84
9705.07
12478.9
15722.8
19377.5
23346.5
27514.8
31756.8
35950.5
39975.1
43718
47083.3
49997.3
52411
54300.5
55665.5
56527.2
56924.5
56909.1
56540.2
55878.8
54985
53914.8
52717.4
51435.8
50104
48749.3
47395.2
46048.7
44725.3
43438.3
42201.2
41016.8
39885.6
38808.1
37785.3
36817.8
35906
35049.6
34248.5
33502.2
32809.7
32170
31581.1
31040.5
30545.4
30092.7
29678.3
29298.8
28949.1
28622.1
28313.8
28021.2
27742.1
27474.9
27217.3
26967.6
26724.1
26485.5
26250.7
26019.2
25790.4
25564
25340
25118.4
24899.3
24682.8
24469
24258.2
24050.6
23846.5
23646.2
23449.8
23257.3
23068.9
4564.35
4324.14
4017.62
3688.74
3389.85
3183.85
3140.76
3332.92
3825.34
4635.05
5787.39
7292.53
9140.45
11293.4
13726.3
16389.9
19218.2
22134.5
25057.9
27907.8
30613.4
33108.6
35339.8
37269
38873.8
40146.5
41092.2
41726.6
42073.5
42161.9
42024
41692.6
41200.1
40576.3
39848.4
39041.9
38174.1
37264.1
36329.4
35384.2
34440.7
33509
32597.1
31711.2
30856.7
30037.6
29257.5
28518.9
27823.5
27172.4
26565.5
26002.5
25482.1
25000.9
24555.9
24143.8
23761.5
23405.5
23072.5
22759.6
22463.8
22182.3
21912.5
21652.1
21399.2
21152.2
20909.8
20671
20435.1
20201.7
19970.5
19741.1
19513.7
19288.1
19064.5
18843.4
18624.9
18409.1
18196
17985.8
3899.34
3983.25
4025.28
4014.21
3943.25
3812.36
3630.19
3415.48
3199.24
3014.88
2898.78
2889.64
3027.85
3350.26
3865.37
4587.55
5523.51
6668.84
8005.71
9518.84
11177.6
12945.9
14781
16637
18467.4
20228.7
21881.9
23394.8
24745
25915.4
26896.6
27686
28287.8
28711
28968.6
29076
29050.5
28909.7
28671
28351.4
27966.1
27528.8
27052.6
26549.2
26029.1
25501.3
24973.3
24451.7
23941.4
23446.8
22971.1
22516.1
22083.2
21673.5
21287.4
20924.7
20584.6
20266
19967.5
19687.1
19423
19173
18934.9
18706.6
18486
18271.3
18061.1
17854
17649
17445.3
17242.1
17039.1
16836
16632.5
16428.7
16224.8
16020.9
15817.2
15613.8
15411
2750.49
2862.48
2979.19
3095.41
3204.16
3297.14
3365.6
3401.42
3398.76
3355.67
3274.52
3162.51
3032.17
2902.65
2793.57
2725.63
2720.35
2799.73
2983.92
3278.88
3689.75
4218.61
4861.4
5610.82
6456.45
7382.31
8368.74
9393.7
10433.2
11464.7
12467.2
13421.6
14311.8
15125.3
15853.4
16490.9
17036.1
17490.4
17858.1
18145.3
18358.8
18506
18594.7
18632.4
18626.6
18584.2
18511.5
18413.9
18296.7
18163.9
18019.6
17866.7
17708
17545.7
17382.1
17218.9
17057.8
16900.1
16746.7
16598
16454.1
16314.7
16179.3
16047
15917
15788.5
15660.5
15532.2
15402.6
15271.1
15137
14999.7
14859
14714.8
14566.8
14415.2
14259.9
14101.3
13939.6
13774.9
1926.82
1988.4
2056.65
2132.23
2215.29
2305.22
2400.35
2497.82
2593.54
2682.52
2759.36
2818.78
2856.27
2868.94
2856.29
2820.3
2765.64
2699.75
2633.4
2577.57
2543.52
2542.5
2585.71
2680.73
2831.63
3041.01
3308.67
3633.11
4009.11
4430.26
4888.76
5375.75
5881.8
6397.41
6913.51
7421.86
7915.38
8388.37
8836.38
9256.58
9647.71
10009.7
10343.2
10649.5
10930.3
11187.2
11421.9
11636
11830.8
12007.5
12166.9
12310.7
12439.4
12553.4
12653.3
12739.8
12813.6
12875.8
12927.5
12969.6
13002.9
13028.2
13046.2
13057.6
13062.7
13061.8
13054.8
13041.7
13022
12995.5
12962
12921.4
12873.4
12818.1
12755.2
12684.8
12607
12521.9
12430
12331
1419.72
1453.21
1488.98
1527.54
1569.47
1615.44
1666.15
1722.2
1783.9
1851.12
1923.14
1998.57
2075.31
2150.6
2221.3
2284.17
2336.21
2374.97
2399.03
2408.27
2403.99
2388.92
2367.27
2344.23
2325.22
2315.89
2321.77
2346.98
2394.93
2467.95
2567.11
2692.36
2842.56
3015.76
3209.35
3420.31
3645.45
3881.67
4125.8
4375