/*--------------------------------*- C++ -*----------------------------------*\
| =========                 |                                                 |
| \\      /  F ield         | OpenFOAM: The Open Source CFD Toolbox           |
|  \\    /   O peration     | Version:  v2006                                 |
|   \\  /    A nd           | Website:  www.openfoam.com                      |
|    \\/     M anipulation  |                                                 |
\*---------------------------------------------------------------------------*/
FoamFile
{
    version     2.0;
    format      ascii;
    class       volScalarField;
    location    "269";
    object      p;
}
// * * * * * * * * * * * * * * * * * * * * * * * * * * * * * * * * * * * * * //

dimensions      [0 2 -2 0 0 0 0];


internalField   nonuniform List<scalar> 
26820
(
0.924174
0.932518
0.951345
0.977862
1.0096
1.04586
1.08592
0.92375
0.932092
0.950865
0.977318
1.00896
1.04509
1.08496
0.922962
0.93126
0.949943
0.976277
1.00773
1.04361
1.08308
0.921787
0.930003
0.948559
0.974712
1.00588
1.04137
1.08025
0.920227
0.928332
0.946728
0.972641
1.00343
1.0384
1.07648
0.918289
0.926261
0.944461
0.970074
1.00038
1.03471
1.07178
0.915981
0.9238
0.941769
0.967023
0.996753
1.03031
1.06618
0.913311
0.920961
0.938667
0.963505
0.992566
1.02523
1.0597
0.910291
0.917759
0.935172
0.959536
0.987837
1.01948
1.05235
0.90693
0.914211
0.931301
0.955136
0.982587
1.01308
1.04415
0.903243
0.910333
0.927076
0.950324
0.976839
1.00606
1.03515
0.899242
0.906145
0.922516
0.945123
0.970618
0.998433
1.02536
0.894942
0.901665
0.917644
0.939553
0.96395
0.990233
1.01483
0.890358
0.896914
0.912482
0.933639
0.956861
0.981479
1.0036
0.885506
0.891913
0.907051
0.927403
0.949381
0.972193
0.991708
0.880401
0.886683
0.901375
0.920871
0.941538
0.962402
0.979225
0.875061
0.881243
0.89547
0.914059
0.933351
0.952125
0.966217
0.869504
0.875624
0.889363
0.906987
0.924825
0.941359
0.952728
0.863746
0.869868
0.883138
0.899782
0.916098
0.930225
0.938896
0.857775
0.863961
0.876829
0.892614
0.907536
0.919325
0.925475
1.13255
1.1875
1.24968
1.31949
1.39708
1.48306
1.57831
1.68371
1.80018
1.92899
2.07219
2.2313
2.40677
2.59972
2.81187
3.04512
3.30138
3.58269
3.89116
4.22901
4.59848
5.00177
5.441
5.91806
6.43452
6.99138
7.58892
8.22637
8.9016
9.61073
10.3477
11.1036
11.8664
12.6202
13.3447
14.0154
14.6021
15.0796
15.4182
15.6102
1.13138
1.18628
1.24837
1.31804
1.39546
1.48127
1.57631
1.68148
1.79768
1.92618
2.06906
2.2278
2.40285
2.5953
2.80688
3.03947
3.29499
3.57543
3.88291
4.21961
4.58774
4.98949
5.42693
5.90193
6.416
6.97011
7.56446
8.19824
8.86927
9.57358
10.305
11.0547
11.8105
12.5566
13.2726
13.9343
14.5119
14.9812
15.3116
15.4754
1.12912
1.1839
1.24582
1.31525
1.39238
1.47786
1.57253
1.67727
1.79299
1.92093
2.06317
2.22116
2.39537
2.58685
2.79732
3.02863
3.28268
3.56143
3.86695
4.2014
4.56695
4.9657
5.39968
5.87069
6.38015
6.92894
7.51717
8.14393
8.80691
9.50204
10.2231
10.961
11.7036
12.435
13.1351
13.7797
14.3393
14.7897
15.1006
15.2358
1.12573
1.18029
1.24198
1.31103
1.38772
1.4727
1.56681
1.6709
1.78586
1.91296
2.0542
2.21107
2.384
2.57402
2.78281
3.0122
3.26403
3.54024
3.84283
4.1739
4.53554
4.92979
5.35857
5.82357
6.3261
6.8669
7.44594
8.06214
8.71303
9.39437
10.0997
10.82
11.5428
12.2521
12.9279
13.5462
14.0773
14.497
14.7761
14.8812
1.12125
1.1755
1.23686
1.30543
1.38152
1.46584
1.55919
1.66241
1.77639
1.90234
2.04228
2.19766
2.3689
2.55697
2.76354
2.99038
3.23928
3.51211
3.81081
4.13741
4.49388
4.88217
5.30407
5.76112
6.25449
6.78472
7.35161
7.95386
8.58878
9.25191
9.93659
10.6335
11.3301
12.0103
12.6539
13.2369
13.7297
14.1078
14.3432
14.4116
1.11569
1.16955
1.23049
1.29845
1.3738
1.4573
1.54972
1.65186
1.7646
1.88914
2.02746
2.181
2.35014
2.5358
2.7396
2.96328
3.20854
3.47719
3.77109
4.09213
4.44222
4.82313
5.23652
5.68375
6.16579
6.68299
7.23489
7.81994
8.43518
9.07589
9.73512
10.4033
11.0676
11.7119
12.3157
12.8552
13.3005
13.6269
13.8072
13.8308
1.10908
1.16244
1.22288
1.29011
1.36459
1.44711
1.5384
1.63926
1.75053
1.87339
2.00978
2.16112
2.32775
2.51054
2.71106
2.93097
3.17191
3.43559
3.72377
4.03823
4.38073
4.7529
5.1562
5.5918
6.06044
6.56222
7.09639
7.66111
8.25312
8.86736
9.49657
10.1308
10.7572
11.3591
11.916
12.4039
12.7928
13.0582
13.1724
13.1433
1.10142
1.1542
1.21405
1.28043
1.3539
1.43528
1.52528
1.62465
1.73422
1.85512
1.98927
2.13808
2.3018
2.48128
2.678
2.89356
3.12951
3.38746
3.66905
3.97593
4.30969
4.67179
5.06349
5.48573
5.93897
6.42305
6.93689
7.47832
8.04372
8.62765
9.2225
9.81803
10.4009
10.9543
11.4575
11.8863
12.2104
12.4057
12.4438
12.3547
1.09276
1.14485
1.20402
1.26945
1.34177
1.42186
1.51038
1.60806
1.71569
1.83439
1.96601
2.11194
2.27238
2.44811
2.64054
2.85119
3.08151
3.33299
3.60715
3.90548
4.22941
4.58019
4.95885
5.36607
5.80205
6.26627
6.75733
7.27267
7.80829
8.35834
8.91479
9.46701
10.0013
10.5005
10.9436
11.3064
11.5579
11.675
11.6274
11.4718
1.08311
1.13443
1.19283
1.25717
1.32821
1.40686
1.49374
1.58954
1.69502
1.81126
1.94006
2.08278
2.23958
2.41113
2.5988
2.804
3.02807
3.27238
3.53831
3.82719
4.14025
4.47851
4.84278
5.23344
5.65038
6.09274
6.55874
7.04541
7.54831
8.06117
8.5755
9.08024
9.56126
10.0011
10.3784
10.6687
10.8407
10.872
10.7303
10.5025
1.0725
1.12295
1.18049
1.24364
1.31326
1.39033
1.47541
1.56913
1.67225
1.78578
1.91149
2.05069
2.20349
2.37048
2.55293
2.75216
2.96939
3.20587
3.46282
3.74138
4.04258
4.36722
4.71583
5.0885
5.48476
5.90341
6.34224
6.79787
7.26539
7.73805
8.20688
8.66037
9.08393
9.45975
9.76604
9.97831
10.0644
10.0034
9.76013
9.45575
1.06096
1.11044
1.16704
1.22888
1.29697
1.37231
1.45542
1.54689
1.64743
1.75802
1.88038
2.01577
2.16423
2.32626
2.50306
2.69583
2.90568
3.1337
3.38095
3.64839
3.93683
4.24682
4.57859
4.93194
5.30604
5.69928
6.10906
6.53151
6.96124
7.39101
7.81136
8.21026
8.57268
8.88039
9.11117
9.24048
9.23531
9.07649
8.72515
8.34103
1.04853
1.09695
1.15252
1.21293
1.27936
1.35285
1.43384
1.52287
1.62064
1.72808
1.84681
1.97811
2.1219
2.27862
2.44936
2.63522
2.83716
3.05613
3.29303
3.5486
3.82343
4.11782
4.4317
4.76453
5.11512
5.48145
5.86048
6.24786
6.6377
7.02225
7.39152
7.73298
8.03109
8.26723
8.41873
8.46099
8.36009
8.09902
7.63425
7.16867
1.03522
1.0825
1.13696
1.19582
1.26047
1.33199
1.4107
1.49713
1.59195
1.69601
1.81089
1.93782
2.07665
2.22771
2.39201
2.57051
2.76406
2.97345
3.19938
3.44241
3.70287
3.9808
4.27583
4.58707
4.91296
5.25106
5.59786
5.94854
6.2967
6.63406
6.95008
7.23173
7.46295
7.62473
7.69392
7.6459
7.44582
7.07902
6.49681
5.94959
1.02107
1.06713
1.1204
1.17759
1.24036
1.30978
1.38608
1.46975
1.56143
1.66191
1.77271
1.89501
2.02859
2.17368
2.33118
2.50194
2.68665
2.88595
3.10036
3.33022
3.57563
3.83634
4.11167
4.40039
4.70054
5.00928
5.32262
5.63525
5.94026
6.22882
6.48986
6.70985
6.87221
6.95752
6.94214
6.80148
6.4998
6.0249
5.32271
4.69529
1.00607
1.05089
1.10288
1.15827
1.21907
1.28627
1.36002
1.44078
1.52916
1.62586
1.73237
1.84981
1.97788
2.11669
2.26706
2.4297
2.60517
2.79394
2.99633
3.21248
3.44222
3.68504
3.93995
4.20535
4.47891
4.75735
5.03622
5.30973
5.57043
5.80898
6.01379
6.17079
6.26291
6.27037
6.16901
5.93426
5.52958
4.94564
4.12233
3.41776
0.990208
1.03385
1.08444
1.13791
1.19665
1.26153
1.33259
1.4103
1.49521
1.58797
1.68998
1.80234
1.92464
2.05692
2.19985
2.35405
2.51991
2.69774
2.88767
3.08962
3.30318
3.52754
3.76141
4.00285
4.24911
4.49651
4.74015
4.97374
5.18933
5.37706
5.52482
5.61805
5.63921
5.56814
5.38024
5.05097
4.54295
3.85048
2.90625
2.12939
0.973394
1.0161
1.0651
1.11653
1.17316
1.2356
1.30386
1.37838
1.45968
1.54833
1.64566
1.75272
1.86904
1.99453
2.12976
2.27521
2.43114
2.59767
2.77476
2.9621
3.15903
3.36448
3.57682
3.79377
4.01222
4.22805
4.43592
4.62908
4.79909
4.93558
5.02595
5.05518
5.00527
4.85575
4.58158
4.15838
3.54777
2.74854
1.68517
0.842802
0.955398
0.997813
1.04485
1.09416
1.14865
1.20856
1.27389
1.3451
1.42266
1.50704
1.59951
1.7011
1.81123
1.9297
2.05699
2.19343
2.33914
2.49408
2.658
2.83039
3.01034
3.19649
3.38693
3.57903
3.7693
3.95323
4.12506
4.27756
4.40184
4.48706
4.52017
4.4857
4.36525
4.13811
3.77879
3.26323
2.55185
1.64892
0.469807
-0.429301
0.936259
0.979036
1.02369
1.07091
1.12319
1.18044
1.24276
1.31055
1.38423
1.4642
1.55167
1.64761
1.75137
1.86262
1.98175
2.10896
2.24421
2.38729
2.53778
2.69495
2.85764
3.02424
3.19252
3.35953
3.52144
3.67334
3.80906
3.92096
3.9997
4.03403
4.01044
3.91313
3.7233
3.42006
2.97753
2.37217
1.5629
0.560574
-0.729278
-1.67423
0.918143
0.959386
1.00133
1.04681
1.09683
1.15133
1.21053
1.2748
1.34448
1.41992
1.50224
1.59239
1.68962
1.79348
1.90427
2.02205
2.14663
2.27766
2.41451
2.55625
2.70149
2.84837
2.99435
3.13619
3.26971
3.38963
3.48942
3.56105
3.59477
3.57893
3.49968
3.34088
3.08343
2.70634
2.18336
1.49166
0.588436
-0.507741
-1.9019
-2.8795
0.901425
0.938133
0.97796
1.02198
1.06963
1.12128
1.17729
1.23794
1.30353
1.37431
1.45136
1.53559
1.62614
1.72247
1.82476
1.93295
2.04671
2.16552
2.28859
2.41476
2.54245
2.66952
2.79319
2.90989
3.01514
3.10335
3.16761
3.19955
3.18906
3.12418
2.99071
2.77228
2.44954
2.00153
1.40161
0.627954
-0.364348
-1.54764
-3.03901
-4.03276
0.883965
0.916242
0.954116
0.996488
1.04163
1.09036
1.14311
1.20006
1.26145
1.32747
1.39915
1.47734
1.56109
1.64976
1.74343
1.84191
1.94473
2.05122
2.16041
2.27095
2.38105
2.48833
2.58976
2.6815
2.75878
2.8157
2.84504
2.83812
2.78455
2.67206
2.48623
2.21051
1.82538
1.30999
0.637383
-0.213011
-1.28865
-2.55112
-4.1308
-5.12505
0.865073
0.893989
0.929989
0.970386
1.0129
1.05865
1.10808
1.16124
1.21835
1.27953
1.34573
1.41779
1.49465
1.57557
1.66052
1.74919
1.84099
1.93509
2.03037
2.12528
2.21783
2.30543
2.38481
2.45189
2.50162
2.52784
2.52308
2.47838
2.3831
2.22479
1.98883
1.6586
1.21447
0.635865
-0.104532
-1.02564
-2.17802
-3.51114
-5.16534
-6.1505
0.845062
0.871429
0.905514
0.943693
0.983497
1.02624
1.07226
1.12156
1.17432
1.2306
1.29125
1.35709
1.42698
1.50007
1.57623
1.65505
1.73579
1.81748
1.89885
1.97819
2.0533
2.12142
2.17904
2.22185
2.2446
2.24089
2.20302
2.12183
1.9865
1.78443
1.50091
1.11935
0.620094
-0.0170257
-0.819682
-1.80478
-3.02637
-4.42343
-6.12994
-7.10104
0.824319
0.848568
0.880638
0.916451
0.953506
0.993178
1.03574
1.08112
1.12948
1.18078
1.23582
1.29538
1.35825
1.42345
1.49079
1.55972
1.62939
1.69871
1.76624
1.83012
1.88798
1.93688
1.97311
1.99219
1.98865
1.95591
1.8861
1.7699
1.59638
1.35289
1.02471
0.595363
0.045256
-0.645177
-1.50399
-2.5458
-3.82731
-5.28162
-7.01776
-7.96719
0.803052
0.825372
0.855375
0.888721
0.922985
0.959549
0.998601
1.04001
1.08392
1.13019
1.17957
1.23282
1.28862
1.34591
1.40441
1.46346
1.5221
1.5791
1.6329
1.68149
1.72236
1.75237
1.7677
1.76365
1.73462
1.67389
1.57345
1.42391
1.21429
0.93195
0.562257
0.0889744
-0.507336
-1.24546
-2.15379
-3.24462
-4.57607
-6.07475
-7.82594
-8.74181
0.781359
0.801833
0.829765
0.860568
0.892
0.925417
0.960913
0.998317
1.03773
1.07894
1.12263
1.16954
1.21825
1.26763
1.3173
1.36651
1.41418
1.45897
1.4992
1.53272
1.55689
1.56844
1.56339
1.53693
1.48332
1.39575
1.26614
1.08507
0.841589
0.523177
0.115355
-0.397746
-1.03531
-1.81517
-2.76587
-3.89769
-5.26869
-6.79635
-8.55006
-9.41978
0.759309
0.777988
0.803848
0.832045
0.860613
0.890853
0.92276
0.956126
0.991023
1.02715
1.06513
1.10568
1.14731
1.18879
1.22967
1.26909
1.30589
1.33861
1.36547
1.3842
1.39203
1.38559
1.36078
1.31269
1.2355
1.12234
0.965124
0.754471
0.479524
0.127967
-0.314423
-0.86302
-1.53665
-2.35203
-3.33758
-4.50178
-5.9006
-7.44496
-9.18464
-9.99757
0.736965
0.753888
0.777665
0.803206
0.828888
0.855927
0.884218
0.913526
0.943892
0.97493
1.00719
1.04139
1.07596
1.10957
1.14172
1.17145
1.19749
1.21833
1.23204
1.23629
1.22819
1.20429
1.16039
1.09153
0.991835
0.854424
0.671264
0.433072
0.129162
-0.252487
-0.725751
-1.30538
-2.00971
-2.85427
-3.86683
-5.05433
-6.46961
-8.01927
-9.72503
-10.4736
0.714385
0.729578
0.751255
0.774103
0.796887
0.820707
0.845366
0.870606
0.896436
0.922381
0.948947
0.976801
1.00434
1.03014
1.05364
1.07379
1.08924
1.09839
1.09923
1.08935
1.06578
1.02499
0.962733
0.874011
0.752943
0.592691
0.385316
0.121704
-0.208586
-0.617195
-1.11755
-1.72367
-2.45325
-3.3206
-4.35231
-5.55391
-6.97506
-8.51713
-10.1681
-10.848
0.691619
0.7051
0.724659
0.744789
0.764674
0.785262
0.806282
0.827452
0.848751
0.869618
0.890516
0.912053
0.932611
0.950681
0.965629
0.976326
0.981364
0.979058
0.967341
0.943711
0.905158
0.848092
0.768252
0.660627
0.519373
0.337738
0.107929
-0.178933
-0.532976
-0.965372
-1.48901
-2.11707
-2.86644
-3.75022
-4.79347
-6.00036
-7.41634
-8.93675
-10.5124
-11.1231
0.668717
0.680497
0.697922
0.715318
0.732309
0.749659
0.767041
0.78415
0.800932
0.816745
0.832009
0.847272
0.86092
0.871347
0.877866
0.879271
0.874097
0.860595
0.836642
0.799682
0.746667
0.673979
0.577359
0.451826
0.291607
0.0900798
-0.160351
-0.468272
-0.843428
-1.29644
-1.83957
-2.4851
-3.24883
-4.14281
-5.19027
-6.3939
-7.79329
-9.27763
-10.7585
-11.3024
0.645723
0.655815
0.671088
0.685743
0.699854
0.713966
0.72772
0.740783
0.753069
0.763867
0.773527
0.782588
0.789409
0.792301
0.790528
0.782815
0.767651
0.743235
0.707398
0.657549
0.590619
0.502986
0.390419
0.247998
0.0700568
-0.149855
-0.419088
-0.745879
-1.13952
-1.61005
-2.16895
-2.82753
-3.60038
-4.49851
-5.54323
-6.73524
-8.10686
-9.54056
-10.9087
-11.3913
0.622682
0.631098
0.644203
0.656116
0.667371
0.678249
0.688394
0.697435
0.705257
0.711085
0.71519
0.718132
0.718218
0.713696
0.703784
0.687145
0.662231
0.627201
0.579852
0.517576
0.437298
0.335418
0.207755
0.0494799
-0.144933
-0.38172
-0.667947
-1.01147
-1.42104
-1.90603
-2.47704
-3.14442
-3.9214
-4.81797
-5.85347
-7.02581
-8.35915
-9.72745
-10.9674
-11.3961
0.599639
0.606386
0.617314
0.626486
0.634918
0.642572
0.649136
0.654188
0.657585
0.658503
0.657122
0.654026
0.647482
0.635681
0.617796
0.592437
0.558029
0.5127
0.454228
0.380001
0.286959
0.171541
0.0296408
-0.143449
-0.353089
-0.605276
-0.90673
-1.26485
-1.68783
-2.18429
-2.76397
-3.43618
-4.2126
-5.10226
-6.12258
-7.26766
-8.55325
-9.84144
-10.9413
-11.3247
0.576639
0.581719
0.590469
0.596906
0.602558
0.606998
0.610022
0.611122
0.610146
0.60622
0.599434
0.590392
0.577333
0.558397
0.53272
0.498859
0.455227
0.399928
0.330735
0.245047
0.139833
0.0115925
-0.14369
-0.330577
-0.554214
-0.820319
-1.13524
-1.5059
-1.93989
-2.44507
-3.03019
-3.70347
-4.47501
-5.35283
-6.35248
-7.46335
-8.69327
-9.88724
-10.8396
-11.186
0.553726
0.557126
0.563712
0.567419
0.570345
0.571585
0.571119
0.568309
0.563021
0.554326
0.542221
0.527335
0.507891
0.481973
0.448692
0.406558
0.353981
0.289049
0.209543
0.112881
-0.00391758
-0.14427
-0.312074
-0.511722
-0.748126
-1.02671
-1.35343
-1.7347
-2.17746
-2.68878
-3.27633
-3.9472
-4.70995
-5.57151
-6.545
-7.61647
-8.78481
-9.87186
-10.6746
-10.9904
0.530974
0.532642
0.537112
0.538082
0.538355
0.536408
0.532516
0.525842
0.516314
0.502934
0.4856
0.464993
0.439308
0.406572
0.36589
0.315721
0.254489
0.180271
0.0908731
-0.0162528
-0.144021
-0.295756
-0.475221
-0.686625
-0.934628
-1.22433
-1.56127
-1.95132
-2.40074
-2.91577
-3.50302
-4.16832
-4.9189
-5.76038
-6.70139
-7.73299
-8.83331
-9.80376
-10.4609
-10.7497
0.508389
0.508256
0.510685
0.508902
0.506604
0.501478
0.494228
0.483736
0.470041
0.452062
0.42958
0.403365
0.37158
0.332182
0.284298
0.226329
0.156726
0.0735626
-0.0253221
-0.14243
-0.280599
-0.443043
-0.633376
-0.855601
-1.11411
-1.41366
-1.75935
-2.15649
-2.61065
-3.12724
-3.71178
-4.36875
-5.10415
-5.92273
-6.82591
-7.81969
-8.84584
-9.6968
-10.2183
-10.4782
0.846397
0.851739
0.862358
0.874784
0.885356
0.891314
0.89099
0.828162
0.831882
0.838836
0.846089
0.85057
0.850037
0.843628
0.80714
0.809166
0.812611
0.815143
0.814405
0.808681
0.797592
0.783302
0.783767
0.78405
0.782461
0.777406
0.767718
0.753682
0.756771
0.755881
0.753457
0.748482
0.740148
0.727816
0.712272
0.727798
0.725816
0.721257
0.713759
0.703226
0.689451
0.67351
0.696773
0.694002
0.687947
0.678814
0.667086
0.65287
0.637374
0.664209
0.660961
0.654048
0.644112
0.632052
0.618183
0.603712
0.630701
0.627269
0.620074
0.61005
0.598347
0.585392
0.572313
0.596889
0.593516
0.586513
0.576958
0.566106
0.554422
0.542911
0.563399
0.560265
0.553797
0.545096
0.535407
0.525185
0.515297
0.530799
0.528018
0.522297
0.514672
0.506294
0.497579
0.489255
0.499565
0.49719
0.49231
0.485844
0.478805
0.47155
0.464684
0.470056
0.468094
0.464058
0.458726
0.452952
0.447034
0.441463
0.442515
0.440937
0.437686
0.433397
0.428766
0.424033
0.419593
0.41707
0.415828
0.413266
0.409884
0.406236
0.402509
0.399019
0.393753
0.392794
0.390813
0.388195
0.38537
0.382483
0.37978
0.37252
0.37179
0.370279
0.368279
0.366119
0.363906
0.361835
0.353276
0.352728
0.351591
0.350084
0.348452
0.346777
0.345209
0.335888
0.335479
0.334629
0.333501
0.332278
0.331017
0.329838
0.320209
0.319907
0.319278
0.318441
0.317532
0.316592
0.315714
0.306079
0.305855
0.30539
0.304771
0.304097
0.303399
0.302746
0.29335
0.293186
0.292845
0.292389
0.291893
0.291377
0.290895
0.281868
0.281748
0.281496
0.281161
0.280795
0.280413
0.280058
0.271508
0.27142
0.271236
0.27099
0.270722
0.270441
0.270179
0.262135
0.26207
0.261935
0.261754
0.261557
0.261349
0.261157
0.253649
0.253602
0.253503
0.25337
0.253225
0.253073
0.252932
0.24594
0.245905
0.245832
0.245734
0.245627
0.245514
0.24541
0.23893
0.238904
0.23885
0.238778
0.2387
0.238616
0.23854
0.232532
0.232513
0.232473
0.23242
0.232362
0.2323
0.232243
0.226694
0.22668
0.22665
0.22661
0.226567
0.226521
0.226479
0.22135
0.22134
0.221317
0.221288
0.221255
0.22122
0.221189
0.216471
0.216463
0.216447
0.216424
0.216399
0.216373
0.216349
0.212022
0.212016
0.212003
0.211985
0.211966
0.211946
0.211927
0.208002
0.207998
0.207987
0.207974
0.207959
0.207942
0.207928
0.204419
0.204415
0.204407
0.204395
0.204383
0.20437
0.204358
0.201317
0.201314
0.201307
0.201298
0.201288
0.201277
0.201267
0.198762
0.198759
0.198753
0.198745
0.198736
0.198727
0.198718
0.196869
0.196866
0.196861
0.196854
0.196846
0.196837
0.196829
0.195801
0.195798
0.195793
0.195786
0.195779
0.195771
0.195763
0.883078
0.862807
0.841228
0.822555
0.804408
0.785378
0.765716
0.745866
0.725935
0.70589
0.685725
0.665477
0.645182
0.624865
0.604551
0.584261
0.564021
0.543856
0.52379
0.503851
0.833627
0.811199
0.788798
0.771334
0.755116
0.738002
0.720372
0.70285
0.685502
0.668191
0.650872
0.633576
0.616332
0.599152
0.582041
0.565008
0.548058
0.5312
0.514423
0.497737
0.785398
0.765517
0.746026
0.730921
0.716814
0.701796
0.686298
0.670944
0.65579
0.6407
0.625632
0.610623
0.595703
0.580875
0.566142
0.551508
0.536979
0.522566
0.508276
0.49413
0.740215
0.72282
0.705611
0.691889
0.679045
0.665567
0.6518
0.638251
0.624962
0.61181
0.598749
0.585798
0.572971
0.560262
0.54766
0.535158
0.522749
0.510428
0.498176
0.486004
0.698398
0.683423
0.668542
0.656445
0.645162
0.633478
0.62162
0.609971
0.598566
0.587303
0.576142
0.565093
0.554167
0.543361
0.532668
0.522084
0.511609
0.501242
0.490978
0.480827
0.659933
0.647187
0.634431
0.623823
0.613903
0.603721
0.593426
0.583314
0.573419
0.563664
0.554015
0.544479
0.535062
0.525757
0.516557
0.507453
0.49844
0.489513
0.48066
0.47189
0.624606
0.613846
0.602992
0.593773
0.585137
0.576354
0.567518
0.55885
0.55038
0.542051
0.533835
0.525732
0.517746
0.509874
0.502107
0.494441
0.486869
0.47939
0.471992
0.464682
0.592062
0.583016
0.573813
0.565841
0.558356
0.550796
0.543213
0.535772
0.528498
0.521348
0.514299
0.507349
0.500502
0.493751
0.487091
0.480517
0.474023
0.467608
0.461261
0.454993
0.561957
0.554376
0.546601
0.539759
0.533323
0.526862
0.520401
0.514063
0.507872
0.501795
0.495815
0.48993
0.484141
0.478444
0.472836
0.46731
0.461862
0.456491
0.451186
0.445954
0.533892
0.527541
0.520979
0.51513
0.509621
0.504113
0.498615
0.493219
0.487946
0.482772
0.477683
0.472676
0.467752
0.462907
0.458138
0.453441
0.448813
0.444252
0.439751
0.435318
0.507604
0.502295
0.496775
0.491815
0.487141
0.482483
0.477841
0.473287
0.468838
0.464478
0.460194
0.455985
0.45185
0.447788
0.443795
0.439868
0.436005
0.432202
0.428456
0.42477
0.482798
0.47836
0.473721
0.469532
0.465586
0.461661
0.457751
0.453914
0.450166
0.446494
0.442888
0.439346
0.435869
0.432454
0.4291
0.425804
0.422565
0.41938
0.416245
0.413167
0.459363
0.455668
0.45179
0.448284
0.444986
0.441709
0.438447
0.435246
0.432122
0.429064
0.426064
0.423119
0.420232
0.4174
0.414621
0.411894
0.409218
0.40659
0.404007
0.401473
0.437137
0.434066
0.430832
0.427912
0.42517
0.422447
0.419735
0.417074
0.414478
0.411939
0.409449
0.407007
0.404614
0.402269
0.399971
0.397718
0.395509
0.393344
0.391219
0.389139
0.416133
0.413598
0.410921
0.408512
0.406256
0.404016
0.401785
0.399596
0.397463
0.395378
0.393336
0.391335
0.389376
0.387459
0.385582
0.383745
0.381946
0.380186
0.378461
0.376776
0.396281
0.394196
0.391988
0.39001
0.388164
0.386331
0.384503
0.382711
0.380965
0.379261
0.377593
0.37596
0.374363
0.372802
0.371276
0.369784
0.368327
0.366903
0.365511
0.364154
0.377645
0.375943
0.374137
0.372528
0.371032
0.369546
0.368063
0.366611
0.365197
0.363819
0.362471
0.361153
0.359866
0.358609
0.357383
0.356187
0.355019
0.353881
0.352771
0.351691
0.360182
0.358799
0.357327
0.356025
0.354818
0.353618
0.352421
0.351248
0.350109
0.348999
0.347914
0.346856
0.345823
0.344817
0.343836
0.342882
0.341952
0.341048
0.340168
0.339315
0.343944
0.342828
0.341638
0.340591
0.339625
0.338665
0.337706
0.336768
0.335858
0.334972
0.334108
0.333265
0.332444
0.331646
0.33087
0.330116
0.329383
0.328672
0.327983
0.327315
0.328874
0.327978
0.327019
0.326181
0.32541
0.324644
0.323878
0.32313
0.322405
0.3217
0.321014
0.320346
0.319697
0.319066
0.318454
0.317861
0.317287
0.316732
0.316194
0.315676
0.314984
0.314268
0.313501
0.312833
0.312222
0.311614
0.311008
0.310415
0.309841
0.309285
0.308744
0.308218
0.307707
0.307213
0.306735
0.306272
0.305825
0.305394
0.304979
0.30458
0.302195
0.301625
0.301012
0.300481
0.299997
0.299517
0.299036
0.298567
0.298115
0.297676
0.29725
0.296837
0.296438
0.296051
0.295678
0.295319
0.294973
0.29464
0.294321
0.294015
0.29048
0.290029
0.289541
0.289121
0.28874
0.288361
0.287982
0.287614
0.287258
0.286914
0.286581
0.286258
0.285946
0.285646
0.285357
0.285079
0.284812
0.284557
0.284313
0.28408
0.279746
0.279389
0.279002
0.27867
0.278369
0.278071
0.277773
0.277483
0.277204
0.276935
0.276674
0.276422
0.27618
0.275947
0.275723
0.275508
0.275303
0.275108
0.274922
0.274746
0.269945
0.269664
0.269357
0.269096
0.26886
0.268626
0.268392
0.268165
0.267946
0.267736
0.267533
0.267337
0.267149
0.266969
0.266796
0.266631
0.266474
0.266325
0.266184
0.266051
0.260981
0.260759
0.260517
0.260311
0.260125
0.259942
0.259759
0.259581
0.25941
0.259246
0.259088
0.258936
0.25879
0.258651
0.258518
0.258391
0.258271
0.258158
0.258051
0.257951
0.252799
0.252625
0.252435
0.252272
0.252127
0.251984
0.25184
0.251701
0.251568
0.25144
0.251318
0.2512
0.251087
0.250979
0.250877
0.25078
0.250688
0.250602
0.250521
0.250446
0.24531
0.245174
0.245024
0.244897
0.244783
0.24467
0.244559
0.24445
0.244346
0.244247
0.244151
0.24406
0.243973
0.24389
0.243811
0.243737
0.243667
0.243602
0.243541
0.243484
0.238464
0.238358
0.23824
0.238141
0.238052
0.237964
0.237877
0.237793
0.237712
0.237635
0.237561
0.23749
0.237423
0.237359
0.237299
0.237242
0.237188
0.237139
0.237093
0.23705
0.232185
0.232103
0.232011
0.231933
0.231864
0.231796
0.231728
0.231662
0.2316
0.23154
0.231483
0.231428
0.231376
0.231327
0.231281
0.231237
0.231197
0.231159
0.231124
0.231092
0.226435
0.226371
0.2263
0.22624
0.226186
0.226133
0.226081
0.22603
0.225981
0.225935
0.225891
0.225849
0.225809
0.225771
0.225736
0.225703
0.225672
0.225643
0.225617
0.225593
0.221155
0.221107
0.221052
0.221005
0.220963
0.220923
0.220882
0.220843
0.220806
0.22077
0.220736
0.220704
0.220673
0.220644
0.220617
0.220592
0.220568
0.220546
0.220526
0.220508
0.216323
0.216287
0.216245
0.216209
0.216177
0.216146
0.216115
0.216085
0.216057
0.21603
0.216004
0.215979
0.215955
0.215933
0.215913
0.215893
0.215875
0.215858
0.215843
0.215829
0.211906
0.21188
0.211849
0.211821
0.211797
0.211774
0.21175
0.211728
0.211706
0.211685
0.211666
0.211647
0.211629
0.211612
0.211597
0.211582
0.211568
0.211555
0.211543
0.211533
0.207912
0.207892
0.20787
0.20785
0.207832
0.207814
0.207797
0.20778
0.207764
0.207748
0.207734
0.20772
0.207706
0.207693
0.207681
0.20767
0.207659
0.20765
0.20764
0.207632
0.204345
0.204332
0.204316
0.204302
0.204289
0.204276
0.204263
0.204251
0.204239
0.204228
0.204217
0.204207
0.204197
0.204187
0.204178
0.204169
0.204161
0.204154
0.204146
0.20414
0.201256
0.201248
0.201237
0.201227
0.201218
0.201209
0.2012
0.201192
0.201183
0.201175
0.201167
0.20116
0.201152
0.201145
0.201138
0.201132
0.201125
0.201119
0.201114
0.201108
0.19871
0.198705
0.198698
0.198691
0.198685
0.198679
0.198673
0.198667
0.198661
0.198656
0.19865
0.198645
0.198639
0.198634
0.198629
0.198624
0.198619
0.198614
0.198609
0.198605
0.196822
0.196819
0.196815
0.196811
0.196807
0.196803
0.196799
0.196795
0.196791
0.196787
0.196783
0.196779
0.196775
0.196771
0.196767
0.196763
0.196758
0.196754
0.19675
0.196746
0.195757
0.195755
0.195752
0.195749
0.195746
0.195743
0.19574
0.195737
0.195734
0.195731
0.195728
0.195725
0.195721
0.195718
0.195714
0.195711
0.195707
0.195704
0.1957
0.195697
-10.1876
-9.89045
-9.5878
-9.28858
-8.99881
-8.72048
-8.45282
-8.19415
-7.9431
-7.69893
-7.46131
-7.2299
-7.00414
-6.78332
-6.56669
-6.35364
-6.14367
-5.93641
-5.73152
-5.52864
-5.32743
-5.12755
-4.92873
-4.73075
-4.53346
-4.33675
-4.14058
-3.94493
-3.74988
-3.55558
-3.36228
-3.17027
-2.97999
-2.79192
-2.60663
-2.42477
-2.2471
-2.07437
-1.9074
-1.74697
-1.59385
-1.44872
-1.31217
-1.18461
-1.06629
-0.957305
-0.857536
-0.766718
-0.684438
-0.610165
-0.54329
-0.483173
-0.429159
-0.380575
-0.336775
-0.297162
-0.261199
-0.228417
-0.198403
-0.170804
-0.145331
-0.121733
-0.099793
-0.0793301
-0.0601933
-0.0422527
-0.0254107
-0.0095887
0.00529179
0.0192949
0.0324816
0.0449018
0.0565874
0.0675808
0.0779228
0.0876402
0.0967631
0.10533
0.113383
0.120988
-9.96319
-9.70544
-9.44546
-9.18548
-8.92591
-8.66824
-8.41374
-8.16325
-7.91754
-7.67732
-7.44303
-7.21457
-6.9914
-6.7728
-6.55803
-6.34649
-6.13778
-5.93157
-5.72757
-5.52544
-5.32488
-5.12555
-4.92719
-4.72961
-4.53265
-4.33623
-4.1403
-3.94485
-3.74998
-3.55583
-3.36265
-3.17075
-2.98055
-2.79255
-2.60732
-2.4255
-2.24785
-2.07514
-1.90816
-1.74771
-1.59457
-1.44941
-1.31281
-1.1852
-1.06683
-0.957778
-0.857948
-0.767069
-0.684729
-0.6104
-0.543473
-0.483309
-0.429253
-0.380634
-0.336803
-0.297165
-0.261181
-0.228382
-0.198356
-0.170748
-0.145268
-0.121665
-0.0997222
-0.0792579
-0.0601208
-0.0421809
-0.0253403
-0.00952032
0.00535785
0.0193584
0.0325423
0.0449595
0.0566422
0.0676326
0.0779718
0.0876864
0.0968066
0.10537
0.113421
0.121024
-9.56046
-9.3841
-9.18856
-8.98047
-8.76021
-8.53289
-8.30386
-8.07568
-7.84912
-7.62455
-7.40235
-7.18278
-6.966
-6.75201
-6.54069
-6.33191
-6.12549
-5.92124
-5.71892
-5.51824
-5.3189
-5.12061
-4.92313
-4.72629
-4.52997
-4.3341
-4.13863
-3.94359
-3.74906
-3.55521
-3.36228
-3.17059
-2.98057
-2.79272
-2.60761
-2.42589
-2.24832
-2.07566
-1.90872
-1.74829
-1.59515
-1.44999
-1.31337
-1.18572
-1.06731
-0.958214
-0.858331
-0.767397
-0.685002
-0.610619
-0.54364
-0.483429
-0.429331
-0.380674
-0.336812
-0.297147
-0.261141
-0.228325
-0.198285
-0.170667
-0.14518
-0.121573
-0.099627
-0.0791618
-0.0600252
-0.0420868
-0.0252486
-0.00943152
0.00544332
0.0194402
0.0326204
0.0450337
0.0567125
0.067699
0.0780343
0.0877452
0.0968619
0.105422
0.11347
0.121069
-8.81854
-8.73504
-8.63313
-8.51845
-8.384
-8.22992
-8.06102
-7.88115
-7.69283
-7.49834
-7.29989
-7.0994
-6.89823
-6.69715
-6.49648
-6.29633
-6.09676
-5.89788
-5.69973
-5.50231
-5.30555
-5.10936
-4.91364
-4.71828
-4.52323
-4.32844
-4.1339
-3.93964
-3.74578
-3.55252
-3.3601
-3.16884
-2.9792
-2.79167
-2.60683
-2.42534
-2.24796
-2.07546
-1.90865
-1.74834
-1.59528
-1.45018
-1.3136
-1.18598
-1.06758
-0.958472
-0.858572
-0.767613
-0.685186
-0.610767
-0.543751
-0.483503
-0.42937
-0.380682
-0.336792
-0.297103
-0.261078
-0.228246
-0.198194
-0.170567
-0.145074
-0.121463
-0.0995159
-0.0790507
-0.0599155
-0.0419795
-0.0251445
-0.00933116
0.00553952
0.019532
0.0327077
0.0451164
0.0567906
0.0677726
0.0781035
0.0878103
0.0969228
0.105479
0.113523
0.121119
-7.86384
-7.85873
-7.83909
-7.80707
-7.75363
-7.67652
-7.57987
-7.46774
-7.3425
-7.20527
-7.057
-6.89934
-6.73405
-6.56261
-6.3862
-6.20581
-6.02231
-5.83657
-5.64923
-5.4607
-5.27123
-5.08099
-4.89012
-4.69871
-4.50688
-4.31471
-4.12233
-3.92989
-3.73756
-3.54558
-3.35426
-3.16397
-2.97516
-2.78835
-2.60413
-2.42318
-2.24626
-2.07416
-1.90768
-1.74765
-1.59483
-1.44991
-1.31349
-1.18598
-1.06766
-0.958609
-0.858736
-0.767782
-0.685346
-0.610905
-0.543859
-0.483578
-0.429411
-0.38069
-0.336769
-0.297053
-0.261005
-0.228155
-0.198089
-0.170451
-0.144952
-0.121337
-0.0993875
-0.0789225
-0.059789
-0.0418559
-0.0250247
-0.00921601
0.00564967
0.0196369
0.0328072
0.0452105
0.0568793
0.067856
0.0781818
0.0878837
0.0969915
0.105543
0.113583
0.121175
-6.90557
-6.94424
-6.97042
-6.98722
-6.9902
-6.97391
-6.93879
-6.88797
-6.82301
-6.74293
-6.6473
-6.53835
-6.41852
-6.2894
-6.15177
-6.00615
-5.85333
-5.69434
-5.53002
-5.36098
-5.1878
-5.01123
-4.83183
-4.65002
-4.46618
-4.28066
-4.09383
-3.90603
-3.71759
-3.52887
-3.34028
-3.15228
-2.96541
-2.78025
-2.59746
-2.41778
-2.24195
-2.07076
-1.90506
-1.74569
-1.59342
-1.44895
-1.31289
-1.18566
-1.06755
-0.958646
-0.858867
-0.767965
-0.685546
-0.6111
-0.544034
-0.48372
-0.429512
-0.380747
-0.336783
-0.297029
-0.260949
-0.228071
-0.197983
-0.170329
-0.144818
-0.121196
-0.099243
-0.0787769
-0.0596442
-0.0417137
-0.0248865
-0.00908286
0.00577714
0.0197584
0.0329224
0.0453194
0.0569818
0.0679523
0.078272
0.087968
0.0970703
0.105617
0.113651
0.121239
-6.03671
-6.10782
-6.16689
-6.21099
-6.23853
-6.25188
-6.25166
-6.23804
-6.21324
-6.17713
-6.12687
-6.06293
-5.98763
-5.90229
-5.80574
-5.69716
-5.57824
-5.45095
-5.31634
-5.17441
-5.02558
-4.87101
-4.71142
-4.54723
-4.37877
-4.20655
-4.03118
-3.85319
-3.67313
-3.49159
-3.30913
-3.12636
-2.94392
-2.76255
-2.58299
-2.40601
-2.23248
-2.06327
-1.89928
-1.74134
-1.59026
-1.44676
-1.31146
-1.18482
-1.06715
-0.958557
-0.858988
-0.768211
-0.685852
-0.61142
-0.544337
-0.483982
-0.429717
-0.380889
-0.336865
-0.297055
-0.260926
-0.228008
-0.197887
-0.170207
-0.144677