/*--------------------------------*- C++ -*----------------------------------*\
| =========                 |                                                 |
| \\      /  F ield         | OpenFOAM: The Open Source CFD Toolbox           |
|  \\    /   O peration     | Version:  v2006                                 |
|   \\  /    A nd           | Website:  www.openfoam.com                      |
|    \\/     M anipulation  |                                                 |
\*---------------------------------------------------------------------------*/
FoamFile
{
    version     2.0;
    format      ascii;
    class       surfaceScalarField;
    location    "269";
    object      phi;
}
// * * * * * * * * * * * * * * * * * * * * * * * * * * * * * * * * * * * * * //

dimensions      [0 3 -1 0 0 0 0];
oriented        oriented;


internalField   nonuniform List<scalar> 
53213
(
0.000404894
-8.73778e-06
0.000412457
-7.56241e-06
0.000418987
-6.53041e-06
0.000424611
-5.6242e-06
0.000429436
-4.82444e-06
0.00043356
-4.1239e-06
-3.48876e-06
0.000437048
0.000404759
-1.73404e-05
0.000412199
-1.50017e-05
0.000418621
-1.29532e-05
0.000424151
-1.11537e-05
0.000428891
-9.56459e-06
0.000432941
-8.17357e-06
-6.91036e-06
0.000436362
0.000404485
-2.56686e-05
0.000411681
-2.21982e-05
0.000417888
-1.91603e-05
0.000423227
-1.64923e-05
0.000427798
-1.41355e-05
0.000431698
-1.20734e-05
-1.01987e-05
0.000434986
0.000404074
-3.35859e-05
0.000410906
-2.90303e-05
0.00041679
-2.50444e-05
0.000421842
-2.15445e-05
0.000426159
-1.84526e-05
0.000429835
-1.57487e-05
-1.32876e-05
0.000432924
0.000403527
-4.09565e-05
0.000409874
-3.53774e-05
0.000415328
-3.04985e-05
0.00042
-2.62157e-05
0.000423979
-2.24319e-05
0.000427356
-1.91254e-05
-1.61112e-05
0.000430179
0.000402845
-4.76452e-05
0.000408588
-4.11198e-05
0.000413506
-3.54165e-05
0.000417702
-3.04119e-05
0.00042126
-2.59902e-05
0.000424264
-2.21295e-05
-1.86043e-05
0.000426757
0.000402029
-5.35182e-05
0.000407048
-4.61384e-05
0.000411325
-3.9693e-05
0.000414952
-3.40396e-05
0.000418007
-2.90446e-05
0.000420565
-2.46882e-05
-2.07018e-05
0.000422663
0.000401081
-5.84425e-05
0.000405258
-5.03156e-05
0.000408789
-4.32237e-05
0.000411756
-3.70065e-05
0.000414225
-3.15133e-05
0.000416265
-2.67289e-05
-2.23397e-05
0.000417903
0.000400001
-6.22871e-05
0.000403221
-5.3535e-05
0.000405902
-4.59056e-05
0.000408117
-3.92212e-05
0.000409919
-3.33154e-05
0.00041137
-2.81802e-05
-2.34543e-05
0.000412485
0.000398792
-6.49223e-05
0.000400938
-5.56817e-05
0.00040267
-4.76368e-05
0.000404042
-4.05935e-05
0.000405098
-3.43711e-05
0.000405889
-2.89713e-05
-2.39831e-05
0.000406418
0.000397455
-6.62205e-05
0.000398416
-5.66426e-05
0.000399096
-4.83173e-05
0.000399537
-4.10346e-05
0.000399768
-3.46017e-05
0.000399829
-2.90328e-05
-2.38643e-05
0.00039971
0.000395992
-6.6056e-05
0.000395656
-5.63062e-05
0.000395187
-4.78483e-05
0.000394609
-4.04571e-05
0.000393938
-3.39301e-05
0.000393201
-2.82959e-05
-2.30375e-05
0.000392374
0.000394406
-6.43055e-05
0.000392663
-5.45635e-05
0.000390948
-4.61333e-05
0.000389266
-3.87752e-05
0.000387617
-3.22803e-05
0.000386014
-2.66934e-05
-2.14433e-05
0.00038442
0.000392699
-6.08481e-05
0.000389443
-5.13074e-05
0.000386387
-4.30775e-05
0.000383517
-3.59048e-05
0.000380815
-2.95784e-05
0.00037828
-2.41588e-05
-1.9024e-05
0.000375861
0.000390874
-5.55656e-05
0.000386
-4.64334e-05
0.000381511
-3.85881e-05
0.00037737
-3.17638e-05
0.000373543
-2.57518e-05
0.000370011
-2.06272e-05
-1.57237e-05
0.000366711
0.000388934
-4.83427e-05
0.00038234
-3.98393e-05
0.000376326
-3.25749e-05
0.000370834
-2.62719e-05
0.000365812
-2.07298e-05
0.00036122
-1.60346e-05
-1.14887e-05
0.000356985
0.000386881
-3.90669e-05
0.000378467
-3.14259e-05
0.000370842
-2.49497e-05
0.000363921
-1.9351e-05
0.000357635
-1.44433e-05
0.000351918
-1.03181e-05
-6.26839e-06
0.000346698
0.000384719
-2.76292e-05
0.00037439
-2.1097e-05
0.000365068
-1.56273e-05
0.000356643
-1.09261e-05
0.000349025
-6.82557e-06
0.000342123
-3.41644e-06
-1.45388e-08
0.000335869
0.000382451
-1.39231e-05
0.000370112
-8.75847e-06
0.000359009
-4.52439e-06
0.000349007
-9.24132e-07
0.000339995
2.18679e-06
0.00033185
4.72811e-06
7.31641e-06
0.000324519
0.000380079
2.15406e-06
0.000365636
5.68531e-06
0.000352662
8.44962e-06
0.000340998
1.07395e-05
0.000330513
1.26723e-05
0.000321059
1.4182e-05
0.000312654
1.57211e-05
0.000396253
4.07954e-05
0.000359238
3.70151e-05
0.000325658
3.358e-05
0.000295196
3.04623e-05
0.000267562
2.76339e-05
0.000242493
2.50685e-05
0.000219751
2.27418e-05
0.000199119
2.0632e-05
0.0001804
1.87191e-05
0.000163416
1.69846e-05
0.000148003
1.54128e-05
0.000134014
1.39886e-05
0.000121316
1.2698e-05
0.000109787
1.15289e-05
9.93173e-05
1.04701e-05
8.98058e-05
9.51155e-06
8.11618e-05
8.64396e-06
7.33028e-05
7.85902e-06
6.61536e-05
7.14919e-06
5.9646e-05
6.50762e-06
5.37179e-05
5.92811e-06
4.83128e-05
5.40504e-06
4.33795e-05
4.93331e-06
3.88712e-05
4.50829e-06
3.47454e-05
4.12579e-06
3.09635e-05
3.78197e-06
2.74901e-05
3.47336e-06
2.42933e-05
3.19677e-06
2.13441e-05
2.94926e-06
1.8616e-05
2.72813e-06
1.60851e-05
2.53086e-06
1.373e-05
2.35509e-06
1.15315e-05
2.19853e-06
9.47252e-06
2.05894e-06
7.53861e-06
1.93391e-06
5.7179e-06
1.82072e-06
4.00286e-06
1.71504e-06
2.39489e-06
1.60797e-06
9.49716e-07
1.44518e-06
9.49716e-07
0.000395632
8.15257e-05
0.000358675
7.39722e-05
0.000325147
6.71077e-05
0.000294732
6.0877e-05
0.000267142
5.52247e-05
0.000242112
5.00978e-05
0.000219406
4.5448e-05
0.000198806
4.12316e-05
0.000180117
3.74088e-05
0.000163158
3.39429e-05
0.000147769
3.08019e-05
0.000133802
2.79555e-05
0.000121124
2.53763e-05
0.000109613
2.304e-05
9.9159e-05
2.09241e-05
8.96622e-05
1.90084e-05
8.10317e-05
1.72745e-05
7.31849e-05
1.57058e-05
6.60469e-05
1.42872e-05
5.95496e-05
1.3005e-05
5.36309e-05
1.18468e-05
4.82345e-05
1.08014e-05
4.33093e-05
9.85856e-06
3.88085e-05
9.00908e-06
3.46897e-05
8.24455e-06
3.09144e-05
7.55733e-06
2.74473e-05
6.94044e-06
2.42566e-05
6.38751e-06
2.13131e-05
5.89269e-06
1.85907e-05
5.45058e-06
1.60654e-05
5.05614e-06
1.37158e-05
4.70465e-06
1.15228e-05
4.39158e-06
9.46923e-06
4.1125e-06
7.54032e-06
3.86282e-06
5.72358e-06
3.63746e-06
4.00849e-06
3.43012e-06
2.39125e-06
3.22521e-06
9.27367e-07
2.90906e-06
1.87708e-06
0.000394383
0.000122129
0.000357541
0.000110814
0.000324118
0.000100531
0.000293798
9.11971e-05
0.000266293
8.27297e-05
0.000241342
7.50493e-05
0.000218706
6.80837e-05
0.000198171
6.17673e-05
0.000179539
5.60404e-05
0.000162633
5.08486e-05
0.000147292
4.61432e-05
0.000133369
4.1879e-05
0.00012073
3.80153e-05
0.000109254
3.45153e-05
9.88327e-05
3.13456e-05
8.93654e-05
2.84757e-05
8.07617e-05
2.58782e-05
7.29393e-05
2.35282e-05
6.58236e-05
2.14029e-05
5.93465e-05
1.9482e-05
5.34464e-05
1.77469e-05
4.80671e-05
1.61807e-05
4.31576e-05
1.47681e-05
3.86713e-05
1.34954e-05
3.45659e-05
1.23499e-05
3.08031e-05
1.13202e-05
2.73478e-05
1.03958e-05
2.41681e-05
9.56718e-06
2.12352e-05
8.82559e-06
1.85229e-05
8.16292e-06
1.60074e-05
7.57162e-06
1.36674e-05
7.04463e-06
1.14838e-05
6.57521e-06
9.43943e-06
6.15684e-06
7.51934e-06
5.78291e-06
5.71036e-06
5.44644e-06
4.00107e-06
5.13941e-06
2.3866e-06
4.83968e-06
9.24018e-07
4.37163e-06
2.8011e-06
0.000392511
0.000162541
0.000355842
0.000147483
0.000322575
0.000133797
0.000292397
0.000121375
0.00026502
0.000110106
0.000240185
9.98844e-05
0.000217655
9.06138e-05
0.000197215
8.22072e-05
0.00017867
7.45852e-05
0.000161844
6.76755e-05
0.000146574
6.14129e-05
0.000132715
5.57376e-05
0.000120135
5.05954e-05
0.000108713
4.59372e-05
9.83403e-05
4.17185e-05
8.89171e-05
3.78989e-05
8.03535e-05
3.44418e-05
7.25677e-05
3.1314e-05
6.54853e-05
2.84854e-05
5.90386e-05
2.59287e-05
5.31663e-05
2.36192e-05
4.78125e-05
2.15345e-05
4.29263e-05
1.96543e-05
3.84615e-05
1.79602e-05
3.43761e-05
1.64353e-05
3.06317e-05
1.50645e-05
2.71936e-05
1.38339e-05
2.40301e-05
1.27307e-05
2.11124e-05
1.17433e-05
1.84146e-05
1.08608e-05
1.59129e-05
1.00732e-05
1.35863e-05
9.37127e-06
1.14156e-05
8.74594e-06
9.38374e-06
8.18868e-06
7.47562e-06
7.69102e-06
5.67782e-06
7.24425e-06
3.97861e-06
6.83862e-06
2.3733e-06
6.44499e-06
9.18489e-07
5.82645e-06
3.71959e-06
0.000390019
0.000202702
0.00035358
0.000183922
0.000320521
0.000166856
0.000290531
0.000151365
0.000263325
0.000137312
0.000238645
0.000124565
0.000216255
0.000113004
0.000195942
0.00010252
0.000177513
9.30145e-05
0.000160791
8.43976e-05
0.000145616
7.65876e-05
0.000131844
6.951e-05
0.000119342
6.30971e-05
0.000107992
5.72879e-05
9.76832e-05
5.20268e-05
8.83188e-05
4.72634e-05
7.98086e-05
4.29519e-05
7.20714e-05
3.90512e-05
6.50333e-05
3.55235e-05
5.86271e-05
3.23349e-05
5.27917e-05
2.94545e-05
4.74717e-05
2.68545e-05
4.26166e-05
2.45095e-05
3.81804e-05
2.23964e-05
3.41213e-05
2.04944e-05
3.04014e-05
1.87845e-05
2.6986e-05
1.72493e-05
2.38437e-05
1.5873e-05
2.09461e-05
1.46409e-05
1.82671e-05
1.35397e-05
1.57835e-05
1.25569e-05
1.3474e-05
1.16807e-05
1.13198e-05
1.09001e-05
9.30387e-06
1.02046e-05
7.41101e-06
9.58388e-06
5.62773e-06
9.02752e-06
3.94219e-06
8.52417e-06
2.35002e-06
8.03716e-06
9.08011e-07
7.26846e-06
4.6276e-06
0.000386912
0.000242547
0.000350758
0.000220076
0.000317959
0.000199656
0.000288203
0.000181121
0.00026121
0.000164305
0.000236723
0.000149052
0.000214508
0.000135218
0.000194355
0.000122674
0.000176069
0.0001113
0.000159478
0.000100989
0.000144421
9.16438e-05
0.000130757
8.31748e-05
0.000118353
7.55012e-05
0.000107091
6.855e-05
9.68628e-05
6.22545e-05
8.75716e-05
5.65546e-05
7.9128e-05
5.13955e-05
7.14515e-05
4.67277e-05
6.44687e-05
4.25063e-05
5.81129e-05
3.86907e-05
5.23236e-05
3.52438e-05
4.70457e-05
3.21323e-05
4.22293e-05
2.93259e-05
3.78287e-05
2.6797e-05
3.38024e-05
2.45206e-05
3.01129e-05
2.2474e-05
2.67257e-05
2.06364e-05
2.36098e-05
1.89888e-05
2.07369e-05
1.75138e-05
1.80813e-05
1.61953e-05
1.56198e-05
1.50184e-05
1.33315e-05
1.3969e-05
1.11975e-05
1.30342e-05
9.20086e-06
1.22012e-05
7.32658e-06
1.14582e-05
5.56112e-06
1.0793e-05
3.89259e-06
1.01927e-05
2.31711e-06
9.61263e-06
8.9254e-07
8.69303e-06
5.52014e-06
0.000383195
0.000282015
0.000347383
0.000255888
0.000314893
0.000232146
0.000285418
0.000210595
0.00025868
0.000191043
0.000234424
0.000173308
0.000212418
0.000157224
0.000192454
0.000142638
0.000174341
0.000129413
0.000157906
0.000117424
0.000142991
0.000106558
0.000129455
9.67109e-05
0.000117168
8.77885e-05
0.000106012
7.97059e-05
9.58806e-05
7.23859e-05
8.6677e-05
6.57582e-05
7.83132e-05
5.97593e-05
7.07092e-05
5.43317e-05
6.37924e-05
4.94231e-05
5.7497e-05
4.49861e-05
5.17628e-05
4.0978e-05
4.65354e-05
3.73597e-05
4.17652e-05
3.40961e-05
3.74071e-05
3.11551e-05
3.34201e-05
2.85077e-05
2.97668e-05
2.61273e-05
2.64134e-05
2.39898e-05
2.3329e-05
2.20733e-05
2.04856e-05
2.03573e-05
1.78577e-05
1.88232e-05
1.54225e-05
1.74536e-05
1.31592e-05
1.62324e-05
1.10491e-05
1.51443e-05
9.07535e-06
1.4175e-05
7.22303e-06
1.33105e-05
5.47869e-06
1.25373e-05
3.83047e-06
1.18409e-05
2.27512e-06
1.1168e-05
8.72197e-07
1.0096e-05
6.39234e-06
0.000378873
0.000321045
0.000343458
0.000291303
0.000311328
0.000264276
0.00028218
0.000239743
0.000255738
0.000217486
0.00023175
0.000197296
0.000209988
0.000178986
0.000190245
0.000162381
0.000172331
0.000147326
0.000156078
0.000133678
0.000141328
0.000121308
0.000127942
0.000110098
0.00011579
9.994e-05
0.000104757
9.07386e-05
9.47382e-05
8.24051e-05
8.56364e-05
7.48599e-05
7.73653e-05
6.80305e-05
6.98456e-05
6.18513e-05
6.30058e-05
5.6263e-05
5.67804e-05
5.12115e-05
5.11103e-05
4.66481e-05
4.59415e-05
4.25285e-05
4.12251e-05
3.88125e-05
3.69164e-05
3.54638e-05
3.2975e-05
3.24491e-05
2.93639e-05
2.97384e-05
2.60496e-05
2.73041e-05
2.30017e-05
2.51212e-05
2.01925e-05
2.31665e-05
1.75968e-05
2.14188e-05
1.51921e-05
1.98584e-05
1.29577e-05
1.84668e-05
1.08751e-05
1.72269e-05
8.92781e-06
1.61223e-05
7.10085e-06
1.51374e-05
5.38094e-06
1.42572e-05
3.75632e-06
1.34655e-05
2.22446e-06
1.26998e-05
8.47163e-07
1.14733e-05
7.2395e-06
0.000373953
0.000359577
0.000338991
0.000326266
0.000307271
0.000295995
0.000278495
0.000268519
0.000252389
0.000243591
0.000228706
0.000220979
0.000207221
0.000200471
0.000187729
0.000181873
0.000170044
0.000165011
0.000153997
0.000149725
0.000139435
0.00013587
0.000126218
0.000123314
0.000114221
0.000111937
0.000103329
0.000101631
9.34374e-05
9.22968e-05
8.44516e-05
8.38457e-05
7.62859e-05
7.61962e-05
6.88623e-05
6.92749e-05
6.21099e-05
6.30154e-05
5.59644e-05
5.73571e-05
5.03671e-05
5.22453e-05
4.52651e-05
4.76306e-05
4.06098e-05
4.34678e-05
3.63574e-05
3.97162e-05
3.24678e-05
3.63387e-05
2.89046e-05
3.33015e-05
2.56349e-05
3.05738e-05
2.26285e-05
2.81276e-05
1.98581e-05
2.59369e-05
1.7299e-05
2.39779e-05
1.49288e-05
2.22286e-05
1.27272e-05
2.06684e-05
1.06759e-05
1.92781e-05
8.75854e-06
1.80396e-05
6.96034e-06
1.69356e-05
5.26818e-06
1.59494e-05
3.67044e-06
1.50633e-05
2.16542e-06
1.42049e-05
8.17674e-07
1.2821e-05
8.05717e-06
0.000368444
0.00039755
0.000333988
0.000360722
0.000302727
0.000327256
0.000274366
0.000296879
0.000248638
0.00026932
0.000225297
0.00024432
0.000204122
0.000221646
0.000184911
0.000201084
0.000167481
0.000182441
0.000151666
0.000165541
0.000137314
0.000150222
0.000124288
0.00013634
0.000112464
0.000123761
0.000101729
0.000112366
9.19804e-05
0.000102046
8.31244e-05
9.27016e-05
7.50768e-05
8.42438e-05
6.77607e-05
7.65911e-05
6.11063e-05
6.96698e-05
5.50501e-05
6.34133e-05
4.95345e-05
5.77609e-05
4.45071e-05
5.26579e-05
3.99204e-05
4.80546e-05
3.57309e-05
4.39057e-05
3.18993e-05
4.01703e-05
2.83898e-05
3.6811e-05
2.51698e-05
3.37938e-05
2.22098e-05
3.10876e-05
1.94829e-05
2.86638e-05
1.69646e-05
2.64961e-05
1.4633e-05
2.45602e-05
1.2468e-05
2.28334e-05
1.04517e-05
2.12945e-05
8.56778e-06
1.99235e-05
6.80175e-06
1.87017e-05
5.14063e-06
1.76105e-05
3.57302e-06
1.66309e-05
2.09817e-06
1.56797e-05
7.83907e-07
1.41353e-05
8.84108e-06
0.000362354
0.000434907
0.000328457
0.00039462
0.000297703
0.00035801
0.000269803
0.00032478
0.000244491
0.000294631
0.000221528
0.000267283
0.000200696
0.000242478
0.000181796
0.000219984
0.000164648
0.000199589
0.000149089
0.0001811
0.000134969
0.000164342
0.000122154
0.000149154
0.000110521
0.000135393
9.99603e-05
0.000122927
9.03693e-05
0.000111637
8.16569e-05
0.000101414
7.37399e-05
9.21608e-05
6.65426e-05
8.37883e-05
5.99964e-05
7.6216e-05
5.4039e-05
6.93707e-05
4.86136e-05
6.31863e-05
4.36688e-05
5.76028e-05
3.91577e-05
5.25657e-05
3.50378e-05
4.80257e-05
3.12703e-05
4.39378e-05
2.782e-05
4.02612e-05
2.46551e-05
3.69588e-05
2.17463e-05
3.39964e-05
1.90673e-05
3.13428e-05
1.65941e-05
2.89693e-05
1.43051e-05
2.68492e-05
1.21805e-05
2.49579e-05
1.02027e-05
2.32723e-05
8.35574e-06
2.17705e-05
6.62522e-06
2.04322e-05
4.9984e-06
1.92373e-05
3.46413e-06
1.81652e-05
2.02284e-06
1.7121e-05
7.45972e-07
1.54121e-05
9.58705e-06
0.000355692
0.000471588
0.000322407
0.000427905
0.000292208
0.000388209
0.00026481
0.000352177
0.000239955
0.000319487
0.000217405
0.000289832
0.000196948
0.000262935
0.000178388
0.000238544
0.000161549
0.000216429
0.000146269
0.00019638
0.000132403
0.000178208
0.000119819
0.000161739
0.000108396
0.000146816
9.80249e-05
0.000133298
8.86067e-05
0.000121055
8.00513e-05
0.000109969
7.22771e-05
9.9935e-05
6.52098e-05
9.08556e-05
5.8782e-05
8.26437e-05
5.29326e-05
7.52201e-05
4.76059e-05
6.8513e-05
4.27514e-05
6.24573e-05
3.8323e-05
5.6994e-05
3.42791e-05
5.20696e-05
3.05817e-05
4.76352e-05
2.71962e-05
4.36467e-05
2.40913e-05
4.00637e-05
2.12385e-05
3.68492e-05
1.86119e-05
3.39694e-05
1.61879e-05
3.13932e-05
1.39454e-05
2.90918e-05
1.18649e-05
2.70383e-05
9.92923e-06
2.5208e-05
8.12257e-06
2.35772e-05
6.43086e-06
2.21239e-05
4.84154e-06
2.08267e-05
3.34381e-06
1.96629e-05
1.93945e-06
1.85254e-05
7.03914e-07
1.66477e-05
1.0291e-05
0.00034847
0.000507539
0.000315847
0.000460527
0.00028625
0.000417806
0.000259397
0.00037903
0.000235036
0.000343848
0.000212935
0.000311933
0.000192884
0.000282986
0.000174693
0.000256735
0.000158188
0.000232934
0.000143212
0.000211356
0.000129622
0.000191798
0.000117287
0.000174073
0.000106091
0.000158013
9.59262e-05
0.000143463
8.66952e-05
0.000130286
7.83101e-05
0.000118354
7.06907e-05
0.000107554
6.37643e-05
9.7782e-05
5.7465e-05
8.8943e-05
5.17327e-05
8.09524e-05
4.65129e-05
7.37328e-05
4.17562e-05
6.7214e-05
3.74175e-05
6.13327e-05
3.3456e-05
5.60311e-05
2.98345e-05
5.12567e-05
2.65191e-05
4.6962e-05
2.34793e-05
4.31035e-05
2.06871e-05
3.96414e-05
1.81171e-05
3.65394e-05
1.57465e-05
3.37639e-05
1.35542e-05
3.1284e-05
1.15216e-05
2.9071e-05
9.63142e-06
2.70981e-05
7.86842e-06
2.53402e-05
6.21874e-06
2.37736e-05
4.67005e-06
2.23753e-05
3.21198e-06
2.11209e-05
1.84799e-06
1.98894e-05
6.57742e-07
1.78379e-05
1.09487e-05
0.000340698
0.000542702
0.000308788
0.000492437
0.000279838
0.000446757
0.000253572
0.000405296
0.000229742
0.000367678
0.000208124
0.000333552
0.00018851
0.000302599
0.000170716
0.00027453
0.000154571
0.000249079
0.000139922
0.000226005
0.000126628
0.000205092
0.000114562
0.000186138
0.000103611
0.000168964
9.36674e-05
0.000153406
8.46379e-05
0.000139315
7.6436e-05
0.000126556
6.89832e-05
0.000115007
6.22085e-05
0.000104557
5.60473e-05
9.51043e-05
5.0441e-05
8.65587e-05
4.53362e-05
7.88375e-05
4.06848e-05
7.18655e-05
3.64425e-05
6.55749e-05
3.25696e-05
5.9904e-05
2.90297e-05
5.47967e-05
2.57898e-05
5.02019e-05
2.28199e-05
4.60734e-05
2.00928e-05
4.23685e-05
1.75837e-05
3.90484e-05
1.52703e-05
3.60774e-05
1.31321e-05
3.34222e-05
1.11507e-05
3.10524e-05
9.3095e-06
2.89393e-05
7.59342e-06
2.70563e-05
5.98891e-06
2.53781e-05
4.48385e-06
2.38804e-05
3.06854e-06
2.25363e-05
1.74825e-06
2.12097e-05
6.07386e-07
1.89788e-05
1.15561e-05
0.000332388
0.000577025
0.000301242
0.000523583
0.000272983
0.000475016
0.000247343
0.000430935
0.000224082
0.000390939
0.000202979
0.000354655
0.000183834
0.000321745
0.000166464
0.0002919
0.000150704
0.000264839
0.000136403
0.000240306
0.000123426
0.000218069
0.000111649
0.000197916
0.000100958
0.000179655
9.12519e-05
0.000163112
8.2438e-05
0.000148129
7.44318e-05
0.000134563
6.71572e-05
0.000122282
6.05446e-05
0.000111169
5.45311e-05
0.000101118
4.90594e-05
9.20304e-05
4.40777e-05
8.38192e-05
3.95387e-05
7.64045e-05
3.53995e-05
6.97141e-05
3.16213e-05
6.36822e-05
2.81685e-05
5.82494e-05
2.50092e-05
5.33613e-05
2.2114e-05
4.89686e-05
1.94564e-05
4.50261e-05
1.70123e-05
4.14925e-05
1.47599e-05
3.83297e-05
1.26794e-05
3.55028e-05
1.07527e-05
3.2979e-05
8.9637e-06
3.07283e-05
7.29768e-06
2.87223e-05
5.74143e-06
2.69343e-05
4.28303e-06
2.53388e-05
2.9135e-06
2.39058e-05
1.63993e-06
2.24832e-05
5.52668e-07
2.0066e-05
1.21088e-05
0.000323555
0.000610456
0.000293218
0.000553919
0.000265695
0.00050254
0.000240721
0.000455908
0.000218064
0.000413596
0.000197509
0.00037521
0.000178861
0.000340393
0.000161942
0.000308819
0.000146591
0.00028019
0.000132662
0.000254235
0.000120022
0.000230709
0.00010855
0.000209388
9.81373e-05
0.000190068
8.86835e-05
0.000172566
8.00987e-05
0.000156714
7.23008e-05
0.00014236
6.52155e-05
0.000129367
5.87752e-05
0.00011761
5.29186e-05
0.000106974
4.75901e-05
9.73589e-05
4.27391e-05
8.86703e-05
3.83196e-05
8.0824e-05
3.42899e-05
7.37437e-05
3.06123e-05
6.73599e-05
2.72522e-05
6.16095e-05
2.41783e-05
5.64351e-05
2.13624e-05
5.17845e-05
1.87786e-05
4.76099e-05
1.64035e-05
4.38676e-05
1.42159e-05
4.05174e-05
1.21965e-05
3.75222e-05
1.03279e-05
3.48476e-05
8.59424e-06
3.2462e-05
6.98133e-06
3.03352e-05
5.47629e-06
2.84394e-05
4.06749e-06
2.67476e-05
2.74669e-06
2.52266e-05
1.52288e-06
2.3707e-05
4.9349e-07
2.10954e-05
1.26023e-05
0.00031421
0.000642943
0.000284732
0.000583398
0.000257985
0.000529287
0.000233716
0.000480177
0.000211698
0.000435614
0.000191723
0.000395185
0.0001736
0.000358515
0.000157159
0.000325261
0.000142241
0.000295108
0.000128704
0.000267771
0.000116421
0.000242993
0.000105273
0.000220536
9.51533e-05
0.000200188
8.59662e-05
0.000181753
7.76236e-05
0.000165057
7.0046e-05
0.000149938
6.3161e-05
0.000136252
5.6903e-05
0.000123868
5.12125e-05
0.000112665
4.60353e-05
0.000102536
4.13225e-05
9.33831e-05
3.70294e-05
8.51172e-05
3.31155e-05
7.76576e-05
2.95441e-05
7.09313e-05
2.62819e-05
6.48718e-05
2.32984e-05
5.94186e-05
2.05662e-05
5.45167e-05
1.80603e-05
5.01158e-05
1.5758e-05
4.61699e-05
1.36388e-05
4.26366e-05
1.16839e-05
3.9477e-05
9.87656e-06
3.6655e-05
8.20133e-06
3.41372e-05
6.64447e-06
3.1892e-05
5.19347e-06
2.98904e-05
3.8371e-06
2.8104e-05
2.56782e-06
2.64959e-05
1.3969e-06
2.4878e-05
4.29765e-07
2.20626e-05
1.3032e-05
0.00030437
0.000674443
0.000275795
0.000611972
0.000249866
0.000555215
0.000226339
0.000503704
0.000204994
0.000456959
0.000185629
0.00041455
0.00016806
0.000376084
0.000152121
0.0003412
0.000137658
0.00030957
0.000124536
0.000280893
0.000112628
0.000254901
0.00010182
0.000231343
9.20102e-05
0.000209998
8.31041e-05
0.000190659
7.50167e-05
0.000173144
6.7671e-05
0.000157284
6.09969e-05
0.000142926
5.49309e-05
0.000129934
4.94152e-05
0.000118181
4.43974e-05
0.000107554
3.983e-05
9.79505e-05
3.56699e-05
8.92772e-05
3.18779e-05
8.14496e-05
2.84184e-05
7.43908e-05
2.52591e-05
6.80311e-05
2.23706e-05
6.2307e-05
1.97265e-05
5.71608e-05
1.73025e-05
5.25398e-05
1.50767e-05
4.83956e-05
1.30293e-05
4.4684e-05
1.11422e-05
4.13641e-05
9.39912e-06
3.83981e-05
7.78523e-06
3.57511e-05
6.28721e-06
3.33901e-05
4.89295e-06
3.12846e-05
3.59166e-06
2.94053e-05
2.37658e-06
2.77109e-05
1.26172e-06
2.59928e-05
3.6135e-07
2.29629e-05
1.33934e-05
0.000294049
0.000704913
0.000266424
0.000639597
0.000241351
0.000580289
0.0002186
0.000526455
0.000197961
0.000477598
0.000179236
0.000433275
0.000162248
0.000393072
0.000146836
0.000356613
0.000132852
0.000323554
0.000120163
0.000293582
0.000108649
0.000266415
9.81986e-05
0.000241794
8.87131e-05
0.000219483
8.01016e-05
0.000199271
7.22819e-05
0.000180964
6.51795e-05
0.000164386
5.87266e-05
0.000149379
5.28618e-05
0.000135798
4.75294e-05
0.000123513
4.26788e-05
0.000112404
3.82639e-05
0.000102365
3.42433e-05
9.32979e-05
3.0579e-05
8.51139e-05
2.72366e-05
7.77331e-05
2.41852e-05
7.10825e-05
2.13963e-05
6.50959e-05
1.88444e-05
5.97128e-05
1.65061e-05
5.48781e-05
1.43604e-05
5.05414e-05
1.23881e-05
4.66563e-05
1.05718e-05
4.31803e-05
8.89594e-06
4.0074e-05
7.34615e-06
3.73009e-05
5.90962e-06
3.48266e-05
4.57467e-06
3.26196e-05
3.33095e-06
3.0649e-05
2.17264e-06
2.88693e-05
1.117e-06
2.70485e-05
2.88048e-07
2.37919e-05
1.36814e-05
0.000283258
0.000734309
0.000256634
0.000666222
0.000232452
0.00060447
0.000210513
0.000548394
0.000190611
0.000497501
0.000172555
0.000451331
0.000156174
0.000409453
0.000141312
0.000371474
0.000127828
0.000337038
0.000115593
0.000305817
0.00010449
0.000277518
9.44133e-05
0.00025187
8.52669e-05
0.000228629
7.69634e-05
0.000207574
6.94234e-05
0.000188504
6.25752e-05
0.000171234
5.63535e-05
0.000155601
5.0699e-05
0.000141453
4.55581e-05
0.000128654
4.0882e-05
0.000117081
3.66266e-05
0.000106621
3.27515e-05
9.71729e-05
2.92206e-05
8.86449e-05
2.60006e-05
8.09531e-05
2.30618e-05
7.40214e-05
2.03767e-05
6.77809e-05
1.7921e-05
6.21686e-05
1.56721e-05
5.7127e-05
1.36098e-05
5.26036e-05
1.17158e-05
4.85503e-05
9.97333e-06
4.49228e-05
8.36742e-06
4.16799e-05
6.88436e-06
3.8784e-05
5.51182e-06
3.61991e-05
4.23857e-06
3.38928e-05
3.05476e-06
3.18328e-05
1.95566e-06
2.99684e-05
9.62323e-07
2.80418e-05
2.09571e-07
2.45446e-05
1.3891e-05
0.000272037
0.00076258
-0.000300308
0.000246427
0.000691831
0.000223182
0.000627716
0.00020209
0.000569487
0.000182955
0.000516636
0.000165595
0.00046869
0.000149847
0.000425201
0.000135559
0.000385762
0.000122595
0.000350001
0.000110832
0.00031758
0.000100158
0.000288193
9.04703e-05
0.000261558
8.16771e-05
0.000237423
7.36942e-05
0.000215557
6.64457e-05
0.000195752
5.98622e-05
0.000177818
5.38812e-05
0.000161582
4.84457e-05
0.000146888
4.35043e-05
0.000133595
3.901e-05
0.000121575
3.49204e-05
0.00011071
3.11969e-05
0.000100896
2.78048e-05
9.20371e-05
2.47121e-05
8.40457e-05
2.18904e-05
7.68432e-05
1.93134e-05
7.03579e-05
1.69576e-05
6.45244e-05
1.48015e-05
5.9283e-05
1.28259e-05
5.45793e-05
1.10131e-05
5.03631e-05
9.34731e-06
4.65886e-05
7.81398e-06
4.32132e-05
6.40011e-06
4.01978e-05
5.09391e-06
3.75053e-05
3.88459e-06
3.51022e-05
2.76286e-06
3.29545e-05
1.72523e-06
3.1006e-05
7.97317e-07
2.89697e-05
1.25492e-07
2.52165e-05
1.40165e-05
0.000260366
0.000789667
-0.000287453
0.000235822
0.000716375
0.000213553
0.000649985
0.000193342
0.000589697
0.000175005
0.000534974
0.000158368
0.000485326
0.000143276
0.000440294
0.000129584
0.000399455
0.000117161
0.000362425
0.000105888
0.000328852
9.56591e-05
0.000298422
8.63755e-05
0.000270841
7.79491e-05
0.000245849
7.02993e-05
0.000223207
6.33532e-05
0.000202698
5.70446e-05
0.000184126
5.13135e-05
0.000167313
4.61055e-05
0.000152096
4.1371e-05
0.00013833
3.70654e-05
0.00012588
3.31479e-05
0.000114628
2.95818e-05
0.000104462
2.63336e-05
9.52853e-05
2.33731e-05
8.70062e-05
2.06727e-05
7.95436e-05
1.82076e-05
7.2823e-05
1.59554e-05
6.67766e-05
1.38956e-05
6.13428e-05
1.20097e-05
5.64652e-05
1.0281e-05
5.20918e-05
8.69435e-06
4.81752e-05
7.23606e-06
4.46715e-05
5.89367e-06
4.15402e-05
4.65599e-06
3.8743e-05
3.51266e-06
3.62455e-05
2.45503e-06
3.40122e-05
1.48102e-06
3.198e-05
6.21749e-07
2.9829e-05
3.4927e-08
2.58033e-05
1.40514e-05
0.00024829
0.000815541
-0.000274163
0.000224841
0.000739824
0.00020358
0.000671246
0.000184284
0.000608993
0.000166772
0.000552485
0.000150885
0.000501213
0.000136473
0.000454706
0.000123397
0.00041253
0.000111533
0.000374288
0.000100769
0.000339617
9.10006e-05
0.00030819
8.21353e-05
0.000279707
7.40886e-05
0.000253896
6.67836e-05
0.000230512
6.01507e-05
0.000209331
5.41268e-05
0.00019015
4.86544e-05
0.000172785
4.36817e-05
0.000157069
3.91616e-05
0.00014285
3.50512e-05
0.000129991
3.13119e-05
0.000118367
2.79085e-05
0.000107866
2.48093e-05
9.83845e-05
2.19853e-05
8.98302e-05
1.94105e-05
8.21184e-05
1.70611e-05
7.51723e-05
1.49159e-05
6.89219e-05
1.29554e-05
6.33033e-05
1.11621e-05
5.82585e-05
9.52011e-06
5.37338e-05
8.01512e-06
4.96802e-05
6.63412e-06
4.60525e-05
5.36535e-06
4.2809e-05
4.19817e-06
3.99102e-05
3.12274e-06
3.73209e-05
2.13106e-06
3.50038e-05
1.22273e-06
3.28883e-05
4.34944e-07
3.06168e-05
-6.20852e-08
2.63003e-05
1.39893e-05
0.000235818
0.00084016
-0.000260437
0.000213504
0.000762139
0.00019328
0.00069147
0.000174927
0.000627345
0.000158271
0.000569141
0.000143157
0.000516326
0.000129447
0.000468417
0.000117008
0.000424969
0.000105722
0.000385574
9.54821e-05
0.000349857
8.61896e-05
0.000317483
7.77563e-05
0.00028814
7.01017e-05
0.00026155
6.31528e-05
0.000237461
5.68433e-05
0.000215641
5.11132e-05
0.000195881
4.5908e-05
0.000177991
4.11783e-05
0.000161799
3.68793e-05
0.000147149
3.29705e-05
0.0001339
2.94151e-05
0.000121923
2.61796e-05
0.000111101
2.3234e-05
0.00010133
2.05509e-05
9.25133e-05
1.81055e-05
8.45638e-05
1.58754e-05
7.74024e-05
1.38404e-05
7.09569e-05
1.19822e-05
6.51616e-05
1.02841e-05
5.99565e-05
8.73135e-06
5.52866e-05
7.31027e-06
5.11013e-05
6.00867e-06
4.73541e-05
4.81544e-06
4.40022e-05
3.7206e-06
4.1005e-05
2.71479e-06
3.83267e-05
1.79071e-06
3.59279e-05
9.50197e-07
3.37288e-05
2.35872e-07
3.13311e-05
-1.63014e-07
2.66992e-05
1.38263e-05
0.000222974
0.000863482
-0.000246296
0.000201829
0.000783283
0.00018267
0.000710629
0.000165289
0.000644727
0.000149512
0.000584918
0.000135197
0.000530642
0.000122209
0.000481405
0.000110426
0.000436752
9.97357e-05
0.000396264
9.00358e-05
0.000359557
8.12335e-05
0.000326285
7.32452e-05
0.000296128
6.59945e-05
0.000268801
5.94123e-05
0.000244043
5.34359e-05
0.000221617
4.80085e-05
0.000201308
4.30784e-05
0.000182921
3.85989e-05
0.000166278
3.45278e-05
0.00015122
3.08265e-05
0.000137601
2.74603e-05
0.000125289
2.43977e-05
0.000114164
2.16102e-05
0.000104118
1.9072e-05
9.50516e-05
1.67596e-05
8.68761e-05
1.46522e-05
7.95099e-05
1.27304e-05
7.28786e-05
1.09772e-05
6.69148e-05
9.37694e-06
6.15567e-05
7.91561e-06
5.67479e-05
6.58052e-06
5.24364e-05
5.36022e-06
4.85744e-05
4.2443e-06
4.51182e-05
3.22343e-06
4.20259e-05
2.2888e-06
3.92614e-05
1.4338e-06
3.67829e-05
6.63752e-07
3.44989e-05
2.28755e-08
3.1972e-05
-2.64743e-07
2.69868e-05
1.35616e-05
0.000209775
0.000885469
-0.000231762
0.000189835
0.000803224
0.000171768
0.000728695
0.000155382
0.000661113
0.000140511
0.000599789
0.000127015
0.000544138
0.00011477
0.00049365
0.000103662
0.000447861
9.35832e-05
0.000406342
8.44384e-05
0.000368702
7.614e-05
0.000334583
6.86089e-05
0.000303659
6.17733e-05
0.000275637
5.5568e-05
0.000250248
4.99339e-05
0.000227251
4.48174e-05
0.000206424
4.017e-05
0.000187568
3.59476e-05
0.000170501
3.21104e-05
0.000155057
2.86223e-05
0.000141089
2.54505e-05
0.000128461
2.25654e-05
0.000117049
1.99402e-05
0.000106743
1.75506e-05
9.74411e-05
1.53749e-05
8.90519e-05
1.33931e-05
8.14917e-05
1.15874e-05
7.46843e-05
9.94176e-06
6.85605e-05
8.44159e-06
6.30569e-05
7.07382e-06
5.81157e-05
5.8266e-06
5.36836e-05
4.68932e-06
4.97117e-05
3.65228e-06
4.61552e-05
2.70682e-06
4.29714e-05
1.84476e-06
4.01234e-05
1.06016e-06
3.75675e-05
3.62287e-07
3.51968e-05
-2.03954e-07
3.25382e-05
-3.65248e-07
2.71481e-05
1.31963e-05
0.000196242
0.000906086
-0.000216859
0.000177537
0.000821929
0.000160591
0.000745641
0.000145225
0.000676479
0.00013128
0.000613734
0.000118625
0.000556793
0.000107143
0.000505132
9.67255e-05
0.000458278
8.72743e-05
0.000415794
7.86988e-05
0.000377277
7.09169e-05
0.000342365
6.38547e-05
0.000310721
5.74447e-05
0.000282047
5.16257e-05
0.000256067
4.63426e-05
0.000232534
4.15449e-05
0.000211222
3.71873e-05
0.000191926
3.32285e-05
0.000174459
2.96311e-05
0.000158655
2.63614e-05
0.000144359
2.33887e-05
0.000131433
2.06854e-05
0.000119752
1.82265e-05
0.000109202
1.59892e-05
9.96784e-05
1.39532e-05
9.10879e-05
1.21e-05
8.33449e-05
1.0413e-05
7.63713e-05
8.87725e-06
7.00962e-05
7.47927e-06
6.44549e-05
6.20693e-06
5.9388e-05
5.04929e-06
5.48413e-05
3.99655e-06
5.07645e-05
3.03976e-06
4.7112e-05
2.17093e-06
4.38402e-05
1.38266e-06
4.09117e-05
6.6971e-07
3.82805e-05
4.32163e-08
3.58232e-05
-4.41151e-07
3.30226e-05
-4.64276e-07
2.71712e-05
1.2732e-05
0.000182394
0.000925301
-0.000201609
0.000164956
0.000839368
0.000149155
0.000761442
0.000134832
0.000690803
0.000121835
0.00062673
0.000110041
0.000568588
9.9338e-05
0.000515835