/*--------------------------------*- C++ -*----------------------------------*\
| =========                 |                                                 |
| \\      /  F ield         | OpenFOAM: The Open Source CFD Toolbox           |
|  \\    /   O peration     | Version:  v2006                                 |
|   \\  /    A nd           | Website:  www.openfoam.com                      |
|    \\/     M anipulation  |                                                 |
\*---------------------------------------------------------------------------*/
FoamFile
{
    version     2.0;
    format      ascii;
    class       volScalarField;
    location    "269";
    object      ReThetat;
}
// * * * * * * * * * * * * * * * * * * * * * * * * * * * * * * * * * * * * * //

dimensions      [0 0 0 0 0 0 0];


internalField   nonuniform List<scalar> 
26820
(
161.327
161.956
162.496
162.956
163.347
163.678
163.959
161.328
161.958
162.499
162.96
163.352
163.684
163.966
161.329
161.962
162.505
162.969
163.363
163.697
163.981
161.331
161.967
162.514
162.981
163.378
163.715
164.003
161.333
161.974
162.526
162.997
163.399
163.74
164.033
161.336
161.983
162.541
163.018
163.425
163.771
164.07
161.339
161.993
162.558
163.043
163.457
163.809
164.115
161.343
162.005
162.579
163.071
163.494
163.853
164.167
161.347
162.019
162.603
163.104
163.536
163.904
164.228
161.352
162.035
162.629
163.141
163.584
163.961
164.297
161.358
162.053
162.659
163.183
163.637
164.025
164.374
161.364
162.072
162.691
163.228
163.696
164.097
164.46
161.37
162.093
162.727
163.278
163.76
164.175
164.555
161.377
162.115
162.765
163.332
163.831
164.261
164.659
161.385
162.14
162.806
163.39
163.907
164.354
164.772
161.393
162.166
162.851
163.453
163.988
164.455
164.896
161.401
162.193
162.898
163.52
164.076
164.564
165.029
161.41
162.222
162.947
163.591
164.169
164.68
165.174
161.42
162.253
163
163.666
164.268
164.806
165.331
161.43
162.286
163.055
163.746
164.373
164.943
165.494
164.211
164.448
164.658
164.844
165.008
165.15
165.272
165.374
165.458
165.525
165.574
165.608
165.629
165.636
165.632
165.617
165.592
165.558
165.517
165.468
165.413
165.352
165.286
165.217
165.144
165.07
164.994
164.921
164.865
164.841
164.836
164.835
164.835
164.835
164.833
164.832
164.831
164.831
164.83
164.83
164.219
164.454
164.664
164.85
165.013
165.155
165.276
165.378
165.462
165.528
165.577
165.611
165.631
165.638
165.634
165.619
165.594
165.56
165.518
165.469
165.414
165.353
165.287
165.218
165.145
165.07
164.996
164.938
164.896
164.867
164.85
164.84
164.835
164.833
164.832
164.831
164.83
164.83
164.83
164.83
164.233
164.468
164.676
164.861
165.023
165.163
165.284
165.385
165.468
165.534
165.582
165.616
165.636
165.642
165.638
165.622
165.597
165.563
165.521
165.472
165.416
165.355
165.289
165.219
165.146
165.072
164.996
164.925
164.872
164.846
164.835
164.83
164.827
164.826
164.827
164.827
164.828
164.829
164.829
164.83
164.255
164.488
164.694
164.877
165.037
165.176
165.296
165.396
165.478
165.542
165.59
165.623
165.642
165.649
165.643
165.627
165.602
165.567
165.525
165.475
165.419
165.358
165.292
165.221
165.148
165.073
164.997
164.921
164.852
164.803
164.789
164.794
164.803
164.811
164.817
164.821
164.825
164.827
164.829
164.829
164.283
164.514
164.718
164.898
165.056
165.194
165.311
165.41
165.491
165.554
165.601
165.633
165.651
165.657
165.651
165.634
165.608
165.573
165.53
165.48
165.424
165.362
165.295
165.225
165.151
165.076
164.999
164.922
164.847
164.78
164.739
164.739
164.761
164.783
164.8
164.812
164.82
164.825
164.828
164.829
164.32
164.548
164.748
164.925
165.08
165.215
165.33
165.427
165.506
165.568
165.614
165.645
165.662
165.667
165.66
165.642
165.615
165.58
165.536
165.486
165.429
165.366
165.299
165.228
165.154
165.078
165.001
164.923
164.846
164.772
164.712
164.684
164.704
164.741
164.774
164.797
164.812
164.821
164.826
164.828
164.363
164.588
164.784
164.957
165.109
165.241
165.354
165.448
165.525
165.586
165.63
165.659
165.675
165.678
165.67
165.652
165.624
165.588
165.544
165.492
165.435
165.372
165.304
165.233
165.158
165.081
165.004
164.925
164.847
164.771
164.7
164.65
164.645
164.688
164.738
164.777
164.802
164.817
164.824
164.827
164.415
164.636
164.826
164.995
165.142
165.271
165.381
165.473
165.548
165.606
165.648
165.676
165.69
165.692
165.683
165.664
165.635
165.597
165.552
165.5
165.442
165.378
165.31
165.238
165.162
165.085
165.007
164.928
164.849
164.771
164.695
164.631
164.6
164.627
164.692
164.75
164.789
164.811
164.822
164.826
164.475
164.691
164.876
165.038
165.181
165.305
165.412
165.501
165.573
165.629
165.669
165.695
165.707
165.708
165.697
165.677
165.647
165.608
165.562
165.509
165.45
165.386
165.316
165.243
165.167
165.089
165.01
164.93
164.85
164.771
164.693
164.622
164.572
164.572
164.635
164.715
164.772
164.804
164.819
164.824
164.543
164.754
164.933
165.088
165.225
165.344
165.446
165.532
165.601
165.654
165.692
165.716
165.726
165.725
165.713
165.691
165.66
165.62
165.573
165.519
165.459
165.394
165.324
165.25
165.173
165.094
165.014
164.933
164.852
164.772
164.693
164.617
164.555
164.532
164.574
164.672
164.75
164.795
164.816
164.823
164.62
164.826
164.997
165.145
165.274
165.388
165.485
165.567
165.632
165.682
165.718
165.739
165.748
165.744
165.731
165.707
165.674
165.633
165.585
165.53
165.469
165.403
165.332
165.257
165.179
165.099
165.018
164.936
164.854
164.773
164.692
164.614
164.544
164.503
164.522
164.625
164.724
164.784
164.812
164.821
164.706
164.906
165.07
165.209
165.33
165.436
165.528
165.605
165.667
165.713
165.746
165.765
165.771
165.766
165.75
165.724
165.69
165.648
165.598
165.542
165.48
165.412
165.34
165.264
165.186
165.105
165.023
164.94
164.857
164.775
164.693
164.612
164.536
164.482
164.481
164.574
164.695
164.771
164.807
164.818
164.802
164.997
165.152
165.281
165.392
165.49
165.575
165.646
165.704
165.747
165.776
165.792
165.796
165.788
165.771
165.743
165.707
165.663
165.612
165.555
165.491
165.423
165.35
165.273
165.193
165.111
165.028
164.945
164.861
164.777
164.693
164.61
164.531
164.467
164.449
164.524
164.662
164.757
164.802
164.816
164.909
165.098
165.244
165.362
165.463
165.55
165.627
165.692
165.744
165.783
165.809
165.822
165.823
165.813
165.793
165.763
165.726
165.68
165.628
165.569
165.504
165.434
165.36
165.281
165.202
165.119
165.035
164.951
164.865
164.78
164.694
164.609
164.526
164.455
164.423
164.479
164.629
164.74
164.796
164.812
165.026
165.211
165.347
165.454
165.543
165.618
165.685
165.742
165.788
165.823
165.844
165.854
165.852
165.839
165.817
165.785
165.745
165.698
165.644
165.583
165.517
165.447
165.373
165.294
165.213
165.129
165.043
164.957
164.87
164.783
164.696
164.609
164.523
164.446
164.402
164.439
164.598
164.724
164.789
164.809
165.155
165.336
165.463
165.56
165.635
165.697
165.751
165.798
165.836
165.865
165.882
165.888
165.883
165.867
165.842
165.808
165.766
165.717
165.661
165.604
165.538
165.465
165.389
165.308
165.225
165.139
165.052
164.964
164.876
164.787
164.698
164.609
164.521
164.439
164.385
164.407
164.568
164.706
164.781
164.805
165.298
165.475
165.594
165.68
165.743
165.791
165.831
165.865
165.893
165.914
165.925
165.926
165.917
165.898
165.871
165.838
165.799
165.748
165.689
165.628
165.56
165.485
165.406
165.324
165.238
165.15
165.061
164.972
164.882
164.791
164.701
164.61
164.52
164.433
164.371
164.381
164.541
164.689
164.773
164.801
165.456
165.63
165.741
165.817
165.869
165.904
165.93
165.951
165.969
165.981
165.987
165.985
165.974
165.95
165.917
165.879
165.835
165.783
165.72
165.654
165.583
165.507
165.425
165.34
165.252
165.162
165.072
164.98
164.888
164.796
164.704
164.612
164.519
164.429
164.359
164.36
164.518
164.673
164.765
164.796
165.617
165.798
165.908
165.977
166.019
166.044
166.058
166.065
166.069
166.07
166.065
166.054
166.036
166.007
165.969
165.924
165.874
165.818
165.753
165.682
165.608
165.529
165.445
165.357
165.267
165.175
165.082
164.989
164.896
164.802
164.709
164.614
164.519
164.426
164.35
164.346
164.498
164.658
164.757
164.791
165.775
165.966
166.079
166.143
166.177
166.191
166.192
166.187
166.177
166.165
166.149
166.128
166.102
166.067
166.023
165.971
165.916
165.855
165.787
165.712
165.634
165.552
165.465
165.375
165.282
165.188
165.094
164.999
164.904
164.809
164.713
164.618
164.52
164.424
164.343
164.337
164.482
164.645
164.749
164.785
165.991
166.121
166.24
166.307
166.335
166.339
166.329
166.311
166.289
166.264
166.236
166.206
166.17
166.128
166.078
166.021
165.959
165.893
165.821
165.743
165.661
165.576
165.487
165.394
165.299
165.203
165.106
165.009
164.913
164.816
164.719
164.621
164.522
164.423
164.338
164.334
164.469
164.633
164.742
164.779
166.199
166.29
166.397
166.467
166.492
166.488
166.467
166.437
166.402
166.365
166.326
166.285
166.24
166.191
166.134
166.071
166.004
165.933
165.857
165.775
165.69
165.601
165.509
165.413
165.316
165.217
165.119
165.02
164.922
164.824
164.725
164.626
164.525
164.422
164.335
164.333
164.46
164.622
164.734
164.774
166.394
166.468
166.557
166.623
166.646
166.636
166.606
166.564
166.518
166.468
166.418
166.366
166.312
166.255
166.192
166.123
166.05
165.974
165.893
165.808
165.719
165.627
165.531
165.433
165.333
165.233
165.132
165.032
164.932
164.832
164.732
164.631
164.528
164.423
164.332
164.334
164.453
164.613
164.728
164.768
166.58
166.65
166.72
166.777
166.798
166.783
166.744
166.692
166.634
166.573
166.511
166.449
166.386
166.321
166.251
166.176
166.097
166.015
165.931
165.842
165.749
165.653
165.555
165.454
165.351
165.248
165.146
165.044
164.942
164.841
164.739
164.637
164.531
164.424
164.332
164.336
164.449
164.606
164.721
164.761
166.761
166.831
166.887
166.932
166.948
166.928
166.882
166.82
166.751
166.678
166.606
166.534
166.461
166.387
166.311
166.23
166.146
166.058
165.969
165.876
165.78
165.68
165.579
165.475
165.37
165.265
165.16
165.056
164.953
164.85
164.747
164.643
164.536
164.426
164.332
164.339
164.446
164.601
164.716
164.755
166.94
167.012
167.056
167.088
167.097
167.072
167.019
166.948
166.868
166.785
166.702
166.619
166.538
166.455
166.372
166.285
166.195
166.102
166.008
165.911
165.811
165.708
165.603
165.497
165.389
165.281
165.174
165.069
164.964
164.86
164.755
164.649
164.54
164.429
164.334
164.342
164.446
164.597
164.71
164.75
167.12
167.192
167.227
167.246
167.245
167.215
167.155
167.075
166.985
166.892
166.798
166.706
166.615
166.524
166.433
166.34
166.245
166.147
166.047
165.946
165.842
165.736
165.628
165.519
165.408
165.298
165.189
165.081
164.975
164.87
164.764
164.656
164.545
164.432
164.336
164.346
164.447
164.595
164.706
164.744
167.301
167.37
167.398
167.405
167.394
167.357
167.29
167.202
167.103
166.999
166.895
166.793
166.693
166.594
166.496
166.396
166.295
166.191
166.087
165.982
165.874
165.765
165.653
165.541
165.427
165.315
165.204
165.094
164.987
164.88
164.772
164.663
164.55
164.435
164.339
164.35
164.449
164.594
164.702
164.738
167.483
167.549
167.57
167.565
167.544
167.498
167.425
167.329
167.22
167.106
166.992
166.881
166.771
166.664
166.558
166.452
166.345
166.237
166.128
166.018
165.906
165.793
165.679
165.563
165.447
165.332
165.219
165.107
164.998
164.89
164.781
164.67
164.555
164.438
164.342
164.354
164.452
164.594
164.698
164.732
167.668
167.729
167.742
167.726
167.693
167.639
167.558
167.454
167.337
167.213
167.089
166.968
166.85
166.735
166.621
166.509
166.396
166.282
166.168
166.054
165.938
165.822
165.704
165.585
165.466
165.348
165.233
165.12
165.009
164.9
164.789
164.677
164.56
164.441
164.346
164.36
164.457
164.595
164.695
164.727
167.856
167.909
167.915
167.888
167.844
167.78
167.691
167.579
167.453
167.319
167.186
167.056
166.929
166.805
166.684
166.565
166.447
166.328
166.209
166.09
165.97
165.85
165.729
165.607
165.485
165.365
165.248
165.133
165.021
164.909
164.797
164.683
164.564
164.444
164.35
164.366
164.463
164.597
164.692
164.721
168.046
168.091
168.088
168.05
167.995
167.921
167.824
167.704
167.568
167.425
167.283
167.143
167.007
166.876
166.748
166.622
166.497
166.373
166.249
166.126
166.003
165.879
165.754
165.629
165.504
165.381
165.262
165.145
165.032
164.919
164.805
164.689
164.568
164.446
164.354
164.372
164.47
164.599
164.689
164.716
168.24
168.274
168.262
168.213
168.146
168.062
167.956
167.827
167.683
167.531
167.379
167.23
167.086
166.946
166.811
166.678
166.548
166.418
166.289
166.162
166.034
165.907
165.779
165.651
165.523
165.397
165.276
165.157
165.042
164.928
164.812
164.694
164.571
164.447
164.358
164.38
164.478
164.603
164.687
164.71
168.436
168.459
168.436
168.376
168.297
168.202
168.087
167.95
167.796
167.635
167.474
167.317
167.164
167.016
166.873
166.734
166.598
166.463
166.329
166.197
166.066
165.934
165.803
165.672
165.541
165.413
165.289
165.169
165.052
164.936
164.819
164.698
164.572
164.447
164.363
164.388
164.487
164.607
164.685
164.705
168.635
168.645
168.611
168.54
168.449
168.343
168.218
168.071
167.909
167.738
167.567
167.402
167.241
167.085
166.935
166.79
166.648
166.507
166.369
166.232
166.096
165.961
165.827
165.692
165.558
165.427
165.301
165.18
165.061
164.943
164.824
164.701
164.572
164.446
164.368
164.398
164.497
164.612
164.683
164.7
168.836
168.833
168.787
168.704
168.6
168.483
168.348
168.192
168.02
167.84
167.66
167.486
167.317
167.153
166.996
166.845
166.696
166.551
166.408
166.266
166.127
165.988
165.85
165.712
165.575
165.441
165.313
165.189
165.069
164.95
164.829
164.703
164.571
164.444
164.373
164.408
164.508
164.617
164.681
164.696
169.04
169.023
168.963
168.867
168.752
168.623
168.477
168.312
168.13
167.941
167.752
167.569
167.392
167.221
167.057
166.898
166.745
166.594
166.445
166.3
166.156
166.013
165.871
165.73
165.59
165.454
165.324
165.198
165.076
164.955
164.832
164.703
164.567
164.44
164.378
164.42
164.52
164.622
164.679
164.691
169.246
169.214
169.14
169.031
168.903
168.763
168.606
168.43
168.239
168.04
167.842
167.651
167.465
167.287
167.116
166.951
166.792
166.636
166.482
166.332
166.184
166.038
165.892
165.748
165.605
165.466
165.333
165.206
165.082
164.959
164.833
164.7
164.561
164.434
164.385
164.433
164.531
164.627
164.677
164.686
169.454
169.407
169.317
169.195
169.054
168.901
168.733
168.547
168.346
168.137
167.93
167.731
167.537
167.351
167.174
167.003
166.838
166.676
166.518
166.363
166.211
166.061
165.912
165.764
165.618
165.476
165.342
165.212
165.087
164.961
164.832
164.695
164.552
164.429
164.392
164.447
164.543
164.632
164.674
164.682
169.665
169.6
169.495
169.359
169.205
169.04
168.86
168.663
168.451
168.233
168.017
167.809
167.608
167.415
167.23
167.053
166.882
166.716
166.553
166.394
166.237
166.083
165.93
165.778
165.629
165.485
165.348
165.217
165.089
164.961
164.828
164.686
164.538
164.424
164.401
164.461
164.556
164.637
164.672
164.677
161.439
162.311
163.101
163.817
164.472
165.093
165.653
161.441
162.324
163.133
163.876
164.568
165.207
165.777
161.443
162.337
163.165
163.935
164.641
165.284
165.863
161.445
162.35
163.192
163.968
164.678
165.324
165.91
161.446
162.352
163.197
163.976
164.69
165.341
165.932
161.446
162.353
163.199
163.98
164.697
165.35
165.944
161.446
162.354
163.2
163.983
164.702
165.356
165.952
161.446
162.354
163.201
163.985
164.704
165.359
165.955
161.446
162.354
163.201
163.985
164.704
165.359
165.955
161.446
162.354
163.201
163.985
164.704
165.358
165.952
161.446
162.354
163.201
163.984
164.702
165.354
165.947
161.446
162.354
163.2
163.982
164.699
165.35
165.941
161.446
162.353
163.199
163.981
164.696
165.346
165.935
161.446
162.353
163.198
163.979
164.693
165.342
165.929
161.446
162.353
163.198
163.977
164.691
165.338
165.924
161.446
162.353
163.197
163.976
164.688
165.335
165.919
161.446
162.353
163.197
163.975
164.686
165.332
165.915
161.446
162.352
163.196
163.974
164.685
165.329
165.912
161.446
162.352
163.196
163.973
164.684
165.327
165.909
161.446
162.352
163.196
163.973
164.683
165.326
165.907
161.446
162.352
163.195
163.972
164.682
165.325
165.906
161.446
162.352
163.195
163.972
164.681
165.324
165.904
161.446
162.352
163.195
163.972
164.681
165.323
165.904
161.446
162.352
163.195
163.972
164.681
165.323
165.903
161.446
162.352
163.195
163.971
164.68
165.323
165.902
161.446
162.352
163.195
163.971
164.68
165.322
165.902
161.446
162.352
163.195
163.971
164.68
165.322
165.902
161.446
162.352
163.195
163.971
164.68
165.322
165.902
161.446
162.352
163.195
163.971
164.68
165.322
165.902
161.446
162.352
163.195
163.971
164.68
165.322
165.901
161.446
162.352
163.195
163.971
164.68
165.322
165.901
161.446
162.352
163.195
163.971
164.68
165.322
165.901
161.446
162.352
163.195
163.971
164.68
165.322
165.901
161.446
162.352
163.195
163.971
164.68
165.322
165.901
161.446
162.352
163.195
163.971
164.68
165.322
165.901
161.446
162.352
163.195
163.971
164.68
165.322
165.901
161.446
162.352
163.195
163.971
164.68
165.322
165.901
161.446
162.352
163.195
163.971
164.68
165.322
165.901
161.446
162.352
163.195
163.971
164.68
165.322
165.901
161.446
162.352
163.195
163.971
164.68
165.322
165.901
166.02
166.179
166.343
166.512
166.684
166.86
167.04
167.223
167.411
167.601
167.796
167.994
168.195
168.4
168.607
168.818
169.031
169.246
169.463
169.683
166.141
166.295
166.456
166.621
166.789
166.961
167.136
167.315
167.498
167.684
167.875
168.068
168.266
168.467
168.67
168.877
169.087
169.299
169.513
169.73
166.218
166.364
166.517
166.675
166.836
167.003
167.173
167.348
167.528
167.712
167.899
168.091
168.287
168.486
168.688
168.894
169.102
169.313
169.526
169.741
166.261
166.403
166.552
166.705
166.864
167.028
167.196
167.37
167.548
167.73
167.916
168.107
168.301
168.499
168.7
168.904
169.11
169.319
169.531
169.744
166.282
166.423
166.57
166.722
166.88
167.042
167.21
167.382
167.559
167.74
167.925
168.115
168.308
168.504
168.703
168.906
169.111
169.319
169.528
169.74
166.295
166.435
166.581
166.732
166.889
167.051
167.217
167.388
167.564
167.744
167.929
168.117
168.308
168.503
168.702
168.903
169.106
169.312
169.52
169.73
166.302
166.441
166.586
166.737
166.893
167.054
167.22
167.39
167.565
167.744
167.927
168.114
168.304
168.498
168.694
168.894
169.096
169.3
169.506
169.714
166.304
166.443
166.588
166.738
166.893
167.053
167.218
167.387
167.561
167.739
167.921
168.106
168.296
168.488
168.683
168.881
169.082
169.285
169.489
169.696
166.303
166.442
166.586
166.735
166.889
167.048
167.212
167.381
167.554
167.731
167.912
168.096
168.284
168.475
168.669
168.866
169.065
169.266
169.469
169.674
166.299
166.437
166.581
166.729
166.883
167.042
167.205
167.372
167.544
167.72
167.9
168.084
168.271
168.461
168.653
168.849
169.047
169.246
169.448
169.651
166.294
166.431
166.574
166.722
166.875
167.033
167.196
167.363
167.534
167.709
167.888
168.071
168.256
168.445
168.637
168.831
169.027
169.226
169.426
169.628
166.287
166.424
166.567
166.714
166.867
167.024
167.186
167.353
167.523
167.697
167.876
168.057
168.242
168.43
168.621
168.814
169.009
169.206
169.405
169.605
166.28
166.417
166.559
166.706
166.859
167.015
167.177
167.343
167.512
167.686
167.864
168.044
168.228
168.415
168.605
168.797
168.991
169.187
169.385
169.584
166.273
166.41
166.552
166.699
166.851
167.007
167.168
167.334
167.503
167.676
167.853
168.033
168.216
168.402
168.591
168.782
168.975
169.171
169.367
169.565
166.267
166.403
166.545
166.692
166.844
167
167.161
167.326
167.495
167.667
167.843
168.023
168.205
168.391
168.579
168.769
168.962
169.156
169.351
169.548
166.261
166.398
166.54
166.687
166.838
166.994
167.155
167.319
167.488
167.66
167.836
168.015
168.197
168.381
168.569
168.758
168.95
169.143
169.338
169.534
166.257
166.394
166.536
166.682
166.834
166.99
167.15
167.314
167.482
167.654
167.829
168.008
168.189
168.374
168.56
168.749
168.94
169.133
169.327
169.522
166.253
166.39
166.532
166.679
166.83
166.986
167.146
167.31
167.478
167.65
167.825
168.003
168.184
168.368
168.554
168.742
168.932
169.124
169.318
169.512
166.251
166.388
166.53
166.677
166.828
166.984
167.144
167.308
167.475
167.647
167.821
167.999
168.18
168.363
168.549
168.737
168.926
169.118
169.311
169.505
166.249
166.386
166.528
166.675
166.827
166.982
167.142
167.306
167.474
167.645
167.819
167.997
168.177
168.36
168.545
168.733
168.922
169.113
169.305
169.499
166.247
166.385
166.527
166.674
166.826
166.982
167.142
167.305
167.473
167.644
167.818
167.995
168.175
168.358
168.543
168.73
168.919
169.109
169.301
169.494
166.246
166.384
166.527
166.674
166.826
166.982
167.142
167.306
167.473
167.644
167.818
167.995
168.175
168.357
168.541
168.728
168.917
169.107
169.298
169.49
166.245
166.384
166.527
166.675
166.827
166.983
167.143
167.306
167.474
167.645
167.818
167.995
168.175
168.357
168.541
168.727
168.915
169.105
169.296
169.488
166.245
166.384
166.527
166.676
166.828
166.984
167.144
167.308
167.475
167.646
167.82
167.996
168.175
168.357
168.541
168.727
168.915
169.104
169.294
169.486
166.245
166.384
166.528
166.677
166.829
166.986
167.146
167.31
167.477
167.648
167.821
167.998
168.177
168.358
168.542
168.727
168.915
169.103
169.293
169.484
166.245
166.385
166.53
166.678
166.831
166.988
167.149
167.313
167.48
167.65
167.824
168
168.179
168.36
168.543
168.728
168.915
169.103
169.293
169.483
166.245
166.386
166.531
166.681
166.834
166.991
167.152
167.316
167.483
167.653
167.827
168.003
168.181
168.362
168.545
168.73
168.916
169.104
169.293
169.483
166.245
166.387
166.533
166.683
166.837
166.994
167.155
167.319
167.487
167.657
167.83
168.006
168.184
168.365
168.547
168.731
168.917
169.105
169.293
169.482
166.245
166.388
166.535
166.686
166.84
166.998
167.159
167.323
167.491
167.661
167.834
168.01
168.188
168.368
168.55
168.734
168.919
169.106
169.293
169.482
166.246
166.39
166.537
166.689
166.844
167.002
167.163
167.328
167.495
167.666
167.839
168.014
168.192
168.371
168.553
168.736
168.921
169.107
169.294
169.482
166.246
166.391
166.54
166.692
166.848
167.006
167.168
167.333
167.501
167.671
167.844
168.019
168.196
168.375
168.556
168.739
168.923
169.108
169.295
169.482
166.247
166.393
166.543
166.696
166.852
167.011
167.174
167.339
167.506
167.677
167.849
168.024
168.201
168.38
168.56
168.742
168.926
169.11
169.296
169.482
166.248
166.395
166.546
166.7
166.857
167.017
167.18
167.345
167.513
167.683
167.855
168.03
168.206
168.385
168.564
168.746
168.928
169.112
169.297
169.483
166.248
166.397
166.55
166.705
166.863
167.023
167.187
167.352
167.52
167.69
167.862
168.036
168.212
168.39
168.569
168.75
168.932
169.115
169.298
169.483
166.249
166.4
166.554
166.71
166.869
167.03
167.194
167.36
167.528
167.698
167.87
168.044
168.219
168.396
168.575
168.754
168.935
169.117
169.3
169.484
166.25
166.403
166.558
166.716
166.876
167.038
167.202
167.369
167.537
167.707
167.878
168.052
168.227
168.403
168.581
168.759
168.939
169.12
169.302
169.484
166.251
166.406
166.563
166.722
166.884
167.047
167.211
167.378
167.546
167.716
167.888
168.061
168.235
168.41
168.587
168.765
168.944
169.123
169.304
169.485
166.253
166.41
166.569
166.73
166.892
167.056
167.222
167.389
167.557
167.727
167.898
168.071
168.244
168.419
168.594
168.771
168.949
169.127
169.306
169.485
166.254
166.414
166.575
166.737
166.901
167.066
167.233
167.4
167.569
167.739
167.91
168.082
168.254
168.428
168.603
168.778
168.954
169.131
169.308
169.486
166.256
166.418
166.582
166.746
166.912
167.078
167.245
167.413
167.582
167.752
167.922
168.094
168.266
168.438
168.612
168.785
168.96
169.135
169.311
169.487
164.673
164.669
164.665
164.661
164.657
164.653
164.649
164.644
164.64
164.635
164.631
164.626
164.622
164.617
164.613
164.608
164.604
164.6
164.595
164.591
164.587
164.583
164.58
164.576
164.572
164.569
164.566
164.563
164.561
164.558
164.556
164.554
164.552
164.551
164.55
164.549
164.549
164.549
164.549
164.55
164.551
164.553
164.555
164.557
164.561
164.564
164.568
164.573
164.579
164.584
164.591
164.598
164.606
164.615
164.624
164.634
164.644
164.656
164.668
164.681
164.695
164.711
164.727
164.744
164.762
164.782
164.803
164.825
164.849
164.875
164.902
164.932
164.964
164.998
165.035
165.075
165.118
165.165
165.215
165.27
164.67
164.667
164.664
164.66
164.656
164.652
164.648
164.644
164.64
164.635
164.631
164.626
164.622
164.617
164.613
164.609
164.604
164.6
164.596
164.591
164.587
164.583
164.58
164.576
164.573
164.569
164.566
164.563
164.561
164.558
164.556
164.554
164.552
164.551
164.55
164.549
164.549
164.549
164.549
164.55
164.551
164.553
164.555
164.557
164.561
164.564
164.569
164.573
164.579
164.585
164.591
164.598
164.606
164.615
164.624
164.634
164.645
164.656
164.668
164.682
164.696
164.711
164.727
164.744
164.762
164.782
164.803
164.825
164.849
164.875
164.902
164.932
164.964
164.998
165.035
165.075
165.118
165.165
165.215
165.27
164.64
164.643
164.644
164.644
164.643
164.642
164.64
164.637
164.634
164.631
164.628
164.624
164.62
164.616
164.612
164.608
164.603
164.599
164.595
164.591
164.587
164.583
164.579
164.576
164.572
164.569
164.566
164.563
164.56
164.558
164.556
164.554
164.552
164.551
164.55
164.549
164.549
164.549
164.549
164.55
164.551
164.553
164.555
164.558
164.561
164.565
164.569
164.574
164.579
164.585
164.592
164.599
164.607
164.616
164.625
164.635
164.646
164.657
164.669
164.683
164.697
164.712
164.728
164.745
164.763
164.783
164.804
164.826
164.85
164.876
164.903
164.933
164.965
164.999
165.036
165.076
165.119
165.166
165.216
165.271
164.567
164.576
164.584
164.591
164.597
164.602
164.605
164.608
164.61
164.61
164.61
164.609
164.608
164.606
164.603
164.601
164.598
164.594
164.591
164.588
164.584
164.581
164.577
164.574
164.571
164.568
164.565
164.562
164.559
164.557
164.555
164.553
164.552
164.55
164.549
164.549
164.549
164.549
164.549
164.55
164.552
164.554
164.556
164.559
164.562
164.566
164.571
164.576
164.581
164.587
164.594
164.601
164.609
164.618
164.627
164.637
164.648
164.66
164.672
164.685
164.699
164.714
164.73
164.748
164.766
164.785
164.806
164.829
164.853
164.878
164.906
164.936
164.967
165.002
165.039
165.079
165.122
165.168
165.219
165.274
164.475
164.486
164.497
164.507
164.517
164.527
164.536
164.544
164.551
164.558
164.563
164.568
164.572
164.574
164.576
164.577
164.577
164.577
164.576
164.575
164.573
164.571
164.569
164.567
164.565
164.563
164.56
164.558
164.556
164.554
164.553
164.551
164.55
164.549
164.549
164.548
164.548
164.549
164.55
164.551
164.553
164.555
164.558
164.561
164.565
164.569
164.574
164.579
164.585
164.592
164.599
164.606
164.614
164.623
164.633
164.643
164.654
164.665
164.678
164.691
164.705
164.72
164.736
164.753
164.772
164.791
164.812
164.834
164.858
164.884
164.912
164.941
164.973
165.007
165.044
165.084
165.127
165.174
165.225
165.28
164.41
164.418
164.427
164.436
164.445
164.454
164.463
164.472
164.48
164.488
164.497
164.505
164.512
164.519
164.525
164.531
164.536
164.54
164.543
164.546
164.548
164.549
164.55
164.55
164.55
164.55
164.55
164.549
164.549
164.548
164.547
164.547
164.547
164.547
164.547
164.548
164.548
164.55
164.551
164.553
164.556
164.559
164.562
164.566
164.571
164.576
164.581
164.587
164.593
164.6
164.608
164.616
164.624
164.633
164.643
164.653
164.664
164.676
164.688
164.702
164.716
164.731
164.747
164.764
164.782
164.802
164.823
164.845
164.869
164.895
164.922
164.952
164.984
165.018
165.055
165.095
165.138
165.185
165.236
165.291
164.421
164.42
164.42
164.421
164.423
164.426
164.43
164.435
164.441
164.447
164.453
164.46
164.466
164.472
164.478
164.485
164.491
164.497
164.502
164.508
164.512
164.517
164.521
164.525
164.528
164.53
164.533
164.535
164.537
164.538
164.54
164.541
164.543
164.545
164.546
164.548
164.551
164.553
164.556
164.56
164.563
164.567
164.572
164.577
164.582
164.588
164.594
164.601
164.608
164.616
164.624
164.632
164.641
164.651
164.661
164.671
164.683
164.694
164.707
164.72
164.735
164.75
164.766
164.783
164.801
164.821
164.842
164.864
164.888
164.913
164.941
164.971
165.003
165.037
165.074
165.114
165.157
165.204
165.255
165.31
164.524
164.514
164.505
164.497
164.489
164.483
164.477
164.473
164.47
164.468
164.466
164.466
164.468
164.471
164.474
164.478
164.481
164.485
164.489
164.494
164.498
164.502
164.507
164.511
164.515
164.519
164.523
164.527
164.531
164.535
164.538
164.542
164.545
164.549
164.553
164.557
164.561
164.565
164.57
164.575
164.58
164.586
164.592
164.598
164.605
164.612
164.619
164.627
164.635
164.643
164.652
164.661
164.671
164.68
164.691
164.702
164.713
164.725
164.738
164.751
164.765
164.78
164.797
164.814
164.832
164.851
164.872
164.894
164.918
164.944
164.972
165.001
165.033
165.068
165.105
165.145
165.188
165.235
165.287
165.342
164.676
164.668
164.66
164.649
164.636
164.623
164.61
164.598
164.587
164.576
164.566
164.557
164.549
164.543
164.537
164.534
164.528
164.526
164.527
164.529
164.531
164.533
164.536
164.539
164.542
164.545
164.549
164.553
164.556
164.56
164.564
164.569
164.573
164.578
164.583
164.588
164.594
164.599
164.605
164.612
164.618
164.625
164.632
164.639
164.647
164.655
164.663
164.672
164.68
164.689
164.699
164.708
164.718
164.728
164.739
164.75
164.761
164.773
164.786
164.8
164.814
164.829
164.845
164.862
164.88
164.899
164.92
164.943
164.966
164.992
165.02
165.049
165.081
165.116
165.153
165.194
165.238
165.285
165.337
165.393
164.823
164.819
164.815
164.81
164.805
164.798
164.791
164.782
164.771
164.756
164.741
164.726
164.712
164.698
164.685
164.673
164.661
164.65
164.641
164.633
164.627
164.624
164.616
164.615
164.616
164.618
164.621
164.624
164.627
164.63
164.633
164.637
164.642
164.647
164.652
164.657
164.663
164.668
164.675
164.681
164.688
164.695
164.703
164.71
164.718
164.726
164.735
164.744
164.752
164.762
164.771
164.781
164.791
164.801
164.811
164.822
164.834
164.846
164.859
164.872
164.886
164.901
164.917
164.934
164.952
164.972
164.993
165.015
165.039
165.065
165.093
165.122
165.155
165.19
165.227
165.268
165.313
165.361
165.413
165.47
164.959
164.958
164.957
164.956
164.955
164.953
164.951
164.949
164.946
164.942
164.937
164.927
164.916
164.903
164.889
164.873
164.857
164.842
164.827
164.813
164.8
164.788
164.776
164.766
164.758
164.753
164.749
164.747
164.739
164.737
164.74
164.745
164.75
164.754
164.758
164.761
164.765
164.771
164.777
164.784
164.791
164.797
164.804
164.812
164.82
164.828
164.836
164.845
164.854
164.863
164.873
164.883
164.893
164.903
164.914
164.925
164.937
164.949
164.962
164.976
164.99
165.005
165.021
165.039
165.057
165.077
165.098
165.12
165.144
165.171