/*--------------------------------*- C++ -*----------------------------------*\
| =========                 |                                                 |
| \\      /  F ield         | OpenFOAM: The Open Source CFD Toolbox           |
|  \\    /   O peration     | Version:  v2006                                 |
|   \\  /    A nd           | Website:  www.openfoam.com                      |
|    \\/     M anipulation  |                                                 |
\*---------------------------------------------------------------------------*/
FoamFile
{
    version     2.0;
    format      ascii;
    class       volVectorField;
    location    "269";
    object      U;
}
// * * * * * * * * * * * * * * * * * * * * * * * * * * * * * * * * * * * * * //

dimensions      [0 1 -1 0 0 0 0];


internalField   nonuniform List<vector> 
26820
(
(5.39977 0.000106847 3.4516e-21)
(5.39792 0.000313206 -2.33884e-22)
(5.39439 0.000532229 4.97566e-22)
(5.38951 0.000771825 -8.05055e-22)
(5.38361 0.00104304 5.63252e-22)
(5.37687 0.00133823 0)
(5.36935 0.00171756 6.69379e-22)
(5.39977 0.000308533 -4.05019e-21)
(5.39793 0.000924875 4.25531e-21)
(5.39441 0.00157892 0)
(5.38955 0.00229399 0)
(5.38367 0.00310569 0)
(5.37696 0.00398775 0)
(5.36947 0.00512625 -3.01543e-21)
(5.39977 0.000501987 5.34559e-22)
(5.39793 0.00152978 -5.03897e-21)
(5.39443 0.00261736 2.31933e-21)
(5.38959 0.0038052 -7.40694e-23)
(5.38374 0.00515672 -2.66296e-21)
(5.37708 0.00662278 5.60631e-21)
(5.36966 0.00852348 -5.94404e-21)
(5.39977 0.000701053 1.78074e-20)
(5.39794 0.00214426 -9.93056e-21)
(5.39445 0.00366615 7.01052e-21)
(5.38964 0.00532695 -2.43253e-21)
(5.38384 0.00721852 5.2171e-21)
(5.37725 0.00926709 2.86206e-21)
(5.36992 0.0119311 -1.16871e-20)
(5.39977 0.000901908 -1.75681e-20)
(5.39795 0.00275922 9.81337e-21)
(5.39448 0.00471409 -1.9935e-23)
(5.38971 0.00684615 9.74258e-21)
(5.38397 0.00927577 0)
(5.37749 0.0119022 0)
(5.37028 0.0153264 -2.8998e-21)
(5.39976 0.00110367 0)
(5.39796 0.00337456 0)
(5.39451 0.00576171 -1.35898e-20)
(5.3898 0.00836355 -1.44437e-20)
(5.38413 0.0113294 -1.54492e-20)
(5.37778 0.0145281 1.09993e-20)
(5.37072 0.01871 -5.31507e-21)
(5.39976 0.00130638 -1.40019e-20)
(5.39797 0.00399085 -1.90812e-20)
(5.39456 0.00680927 2.69983e-20)
(5.3899 0.00987891 0)
(5.38433 0.0133785 2.03359e-20)
(5.37813 0.0171425 5.18231e-21)
(5.37125 0.0220781 2.26999e-20)
(5.39976 0.00151015 4.92677e-23)
(5.39798 0.00460826 2.10503e-20)
(5.39461 0.00785648 -1.77505e-20)
(5.39003 0.0113915 -4.6863e-21)
(5.38457 0.0154218 -1.01166e-20)
(5.37855 0.0197429 -1.07547e-20)
(5.37188 0.0254276 -3.71768e-23)
(5.39976 0.00171502 1.56384e-20)
(5.398 0.00522673 4.19022e-21)
(5.39467 0.00890291 -4.37415e-21)
(5.39018 0.0129006 0)
(5.38484 0.017458 0)
(5.37903 0.0223268 1.06359e-20)
(5.3726 0.0287551 -1.13227e-20)
(5.39976 0.00192098 0)
(5.39802 0.00584611 1.63845e-20)
(5.39474 0.00994805 -1.74558e-20)
(5.39035 0.0144056 0)
(5.38515 0.0194856 -9.94109e-21)
(5.37958 0.0248916 -1.06522e-20)
(5.37342 0.0320571 -5.82727e-21)
(5.39976 0.00212799 3.04408e-20)
(5.39805 0.00646617 -1.62986e-20)
(5.39483 0.0109913 3.47155e-20)
(5.39054 0.0159054 0)
(5.3855 0.0215029 1.98401e-20)
(5.3802 0.0274351 0)
(5.37433 0.0353302 0)
(5.39976 0.00233599 -2.0353e-21)
(5.39808 0.00708654 6.08017e-21)
(5.39492 0.0120318 -3.00264e-20)
(5.39076 0.0173994 -9.1347e-21)
(5.3859 0.023508 -9.91428e-21)
(5.38088 0.0299549 0)
(5.37534 0.0385705 -2.28013e-20)
(5.39976 0.00254487 -3.00312e-20)
(5.39811 0.00770674 4.04242e-21)
(5.39503 0.0130689 -4.15939e-21)
(5.391 0.0188866 9.32931e-21)
(5.38633 0.0254989 -9.73877e-21)
(5.38163 0.0324494 -1.08491e-20)
(5.37646 0.0417735 3.32404e-20)
(5.39976 0.0027545 3.7342e-21)
(5.39815 0.00832623 -3.96965e-21)
(5.39515 0.0141015 1.71346e-20)
(5.39126 0.020366 1.82965e-20)
(5.38681 0.0274728 -9.80232e-21)
(5.38245 0.0349171 -1.05619e-20)
(5.37767 0.0449339 -5.68336e-21)
(5.39976 0.00296468 0)
(5.39819 0.0089444 1.58285e-20)
(5.39528 0.0151291 0)
(5.39156 0.021837 -1.84007e-20)
(5.38734 0.0294277 1.96781e-20)
(5.38334 0.0373577 -2.12633e-20)
(5.37898 0.048044 3.92132e-20)
(5.39977 0.00317507 0)
(5.39824 0.00956008 -1.58939e-20)
(5.39543 0.0161508 -8.6182e-21)
(5.39187 0.0232998 8.94103e-21)
(5.38792 0.0313631 -2.00835e-20)
(5.3843 0.0397747 1.0071e-20)
(5.38039 0.0510963 2.22092e-20)
(5.39978 0.00338549 -1.46995e-20)
(5.3983 0.0101705 0)
(5.3956 0.0171614 0)
(5.39222 0.0247478 -9.2322e-21)
(5.38854 0.0332725 0)
(5.38533 0.0421701 1.06812e-20)
(5.38189 0.0540794 -2.22987e-20)
(5.39979 0.00359733 1.85211e-20)
(5.39836 0.0107754 -3.96052e-21)
(5.39578 0.0181532 0)
(5.39259 0.0261602 0)
(5.38921 0.0351226 2.00571e-20)
(5.38641 0.0445117 -2.6347e-20)
(5.38349 0.0569391 2.27872e-20)
(5.3998 0.00381518 0)
(5.39842 0.0113999 8.0531e-21)
(5.39596 0.0191751 -8.55559e-21)
(5.39298 0.0275918 4.75905e-21)
(5.38993 0.0369454 -2.99712e-20)
(5.38754 0.0467804 2.89985e-20)
(5.3852 0.0595885 1.97673e-20)
(5.39982 0.00403676 0)
(5.39848 0.0121251 8.89712e-21)
(5.39615 0.0204988 -9.41673e-21)
(5.39337 0.0295873 5.11228e-21)
(5.39066 0.0395713 0)
(5.38867 0.0500372 -2.58276e-20)
(5.38704 0.0631999 2.6845e-20)
(5.36062 0.00199487 3.12625e-23)
(5.35028 0.00226616 -1.52309e-21)
(5.33862 0.00254651 8.33897e-22)
(5.32552 0.00285074 7.687e-21)
(5.31093 0.00318475 -5.59454e-22)
(5.29469 0.00355254 -4.92055e-21)
(5.27664 0.00395896 6.69442e-22)
(5.25659 0.00440969 0)
(5.23433 0.00491125 0)
(5.20963 0.00546722 0)
(5.18226 0.00609425 0)
(5.15189 0.00679461 0)
(5.11818 0.00757683 -4.6953e-22)
(5.08079 0.008453 8.27609e-22)
(5.0393 0.00943758 5.15589e-21)
(4.99325 0.0105461 0)
(4.94211 0.0117959 5.42419e-22)
(4.88531 0.0132067 -9.45046e-22)
(4.8222 0.0148013 6.58801e-21)
(4.75208 0.0166057 0)
(4.67413 0.0186498 4.61251e-21)
(4.58749 0.0209676 3.66824e-22)
(4.49117 0.0235978 6.37637e-21)
(4.38411 0.0265842 -4.10128e-21)
(4.26513 0.0299764 0)
(4.13296 0.0338298 0)
(3.98621 0.0382061 -3.57763e-21)
(3.8234 0.0431736 0)
(3.64295 0.0488065 5.12897e-21)
(3.44322 0.0551844 -5.32309e-21)
(3.22249 0.0623912 -8.82406e-22)
(2.97906 0.0705126 4.32935e-21)
(2.71122 0.0796312 6.64548e-22)
(2.41738 0.0898193 4.44511e-23)
(2.09609 0.101117 -1.79194e-21)
(1.74656 0.113496 1.02842e-21)
(1.36704 0.126748 0)
(0.961903 0.139962 0)
(0.530482 0.14719 0)
(0.119126 0.112335 0)
(5.36079 0.00595194 2.80567e-21)
(5.35049 0.00676504 1.29985e-20)
(5.33886 0.00760342 0)
(5.32582 0.00851059 -8.43543e-21)
(5.31126 0.00950609 0)
(5.29508 0.0106024 1.64615e-20)
(5.27708 0.0118138 0)
(5.2571 0.0131571 1.85899e-21)
(5.23492 0.0146518 -1.98862e-21)
(5.21029 0.0163135 -1.22063e-21)
(5.18301 0.0181713 2.79108e-21)
(5.15274 0.0202506 -1.6431e-21)
(5.11913 0.0225797 8.30568e-21)
(5.08186 0.0251925 0)
(5.04051 0.0281299 -6.20864e-21)
(4.99462 0.0314375 -1.50977e-20)
(4.94365 0.0351667 -1.20319e-21)
(4.88705 0.0393765 1.34862e-21)
(4.82417 0.0441345 -6.81038e-21)
(4.75431 0.0495181 0)
(4.67667 0.055616 -5.0079e-21)
(4.59038 0.062529 0)
(4.49448 0.0703719 9.18874e-21)
(4.38791 0.0792749 2.29932e-21)
(4.2695 0.0893846 0)
(4.13799 0.100865 -1.44882e-20)
(3.99202 0.1139 1.34385e-20)
(3.83012 0.12869 0)
(3.65074 0.145455 -7.03789e-21)
(3.45225 0.16443 6.57013e-21)
(3.23299 0.185863 4.01003e-21)
(2.99125 0.210007 -7.10551e-21)
(2.72537 0.237107 2.94878e-21)
(2.43379 0.267379 -3.30548e-21)
(2.11505 0.30096 8.04899e-21)
(1.76822 0.337806 0)
(1.39125 0.377533 0)
(0.98741 0.417768 0)
(0.554412 0.440089 0)
(0.119368 0.332 9.72743e-21)
(5.36106 0.00988794 2.50138e-21)
(5.35082 0.0112411 -9.21629e-21)
(5.33926 0.0126354 3.12769e-20)
(5.32628 0.0141406 -7.93934e-21)
(5.31181 0.0157916 2.24486e-20)
(5.2957 0.0176097 -7.67378e-21)
(5.2778 0.0196185 2.07311e-20)
(5.25792 0.0218456 -1.75423e-21)
(5.23585 0.0243235 1.73531e-20)
(5.21135 0.0270829 -2.31047e-21)
(5.18421 0.0301637 2.54457e-21)
(5.15409 0.0336127 1.67238e-21)
(5.12067 0.0374794 7.94441e-21)
(5.0836 0.0418185 -2.14009e-20)
(5.04249 0.0466963 3.04378e-21)
(4.99685 0.052188 -3.35851e-21)
(4.94618 0.0583791 -2.25554e-21)
(4.88993 0.0653671 2.52536e-21)
(4.82745 0.073264 -1.26827e-20)
(4.75804 0.0821975 0)
(4.68093 0.092314 0)
(4.59526 0.10378 -1.12419e-20)
(4.50007 0.116784 -1.72227e-20)
(4.39432 0.131542 3.95379e-21)
(4.27688 0.148295 0)
(4.1465 0.167313 1.19437e-20)
(4.00184 0.188897 -1.09109e-20)
(3.84146 0.213377 6.37376e-21)
(3.66387 0.241115 1.04212e-20)
(3.46745 0.272496 -2.96663e-21)
(3.25059 0.307927 0)
(3.01164 0.347822 0)
(2.74897 0.392586 -1.03118e-20)
(2.46105 0.442582 0)
(2.14642 0.498074 -2.17674e-20)
(1.80409 0.559085 1.29068e-20)
(1.4318 0.625356 -4.96512e-21)
(1.03199 0.69349 -1.49169e-20)
(0.601207 0.731989 3.68863e-21)
(0.148029 0.546488 -8.83745e-21)
(5.36144 0.0138243 1.00947e-20)
(5.3513 0.0157126 -5.6037e-21)
(5.33982 0.0176614 -2.9515e-20)
(5.32694 0.0197634 7.47897e-21)
(5.31258 0.0220681 1.27901e-20)
(5.29659 0.0246062 0)
(5.27881 0.0274103 -2.5282e-20)
(5.25907 0.0305188 3.10895e-21)
(5.23715 0.0339773 -1.47181e-20)
(5.21283 0.0378303 0)
(5.18589 0.0421319 2.59471e-21)
(5.156 0.0469469 -6.10541e-21)
(5.12283 0.0523453 -1.12832e-20)
(5.08605 0.0584028 1.04833e-22)
(5.04526 0.0652109 -2.47761e-20)
(5 0.0728746 1.66213e-20)
(4.94976 0.0815127 -2.11994e-21)
(4.894 0.091261 2.37123e-21)
(4.83209 0.102275 1.50867e-20)
(4.76334 0.114731 1.0902e-20)
(4.68699 0.128834 0)
(4.60219 0.144814 1.33391e-20)
(4.50803 0.162934 -6.38551e-21)
(4.40347 0.183491 -1.15499e-20)
(4.28741 0.206819 0)
(4.15863 0.233294 2.89133e-21)
(4.01584 0.263331 -3.19832e-21)
(3.85764 0.297387 4.14495e-21)
(3.68257 0.335962 -1.41357e-20)
(3.48907 0.379587 -2.94584e-21)
(3.27559 0.428824 3.26102e-21)
(3.04052 0.484245 1.58732e-20)
(2.78231 0.546414 9.54514e-21)
(2.49945 0.61585 0)
(2.19051 0.692966 1.32673e-20)
(1.85451 0.777918 -1.17191e-20)
(1.4891 0.87064 9.00491e-21)
(1.09596 0.966806 -1.03203e-20)
(0.669128 1.0218 1.2948e-20)
(0.196267 0.758639 -2.32774e-20)
(5.36195 0.0177397 0)
(5.35192 0.0201578 0)
(5.34056 0.0226573 0)
(5.32781 0.0253515 0)
(5.31358 0.0283044 -6.44703e-20)
(5.29774 0.0315561 0)
(5.28012 0.0351488 0)
(5.26057 0.039131 -3.14797e-21)
(5.23885 0.0435614 3.38179e-21)
(5.21476 0.0484972 -1.18105e-20)
(5.18807 0.054008 -4.58505e-21)
(5.15847 0.0601747 0)
(5.12563 0.0670879 -2.4318e-20)
(5.08922 0.074844 1.30172e-20)
(5.04886 0.0835597 4.15074e-20)
(5.00408 0.0933686 -3.2906e-21)
(4.95441 0.104422 3.41164e-20)
(4.89929 0.116894 0)
(4.83812 0.13098 0)
(4.77023 0.146908 -1.3616e-20)
(4.69487 0.164936 -4.28096e-21)
(4.61122 0.185357 -4.10672e-22)
(4.51839 0.208505 5.72564e-21)
(4.41538 0.234758 1.43878e-20)
(4.30112 0.26454 -4.49167e-21)
(4.17444 0.298327 4.96684e-21)
(4.03407 0.336645 0)
(3.87869 0.380076 1.46331e-20)
(3.70688 0.429248 0)
(3.51716 0.484837 2.07425e-20)
(3.30803 0.547553 0)
(3.07796 0.618122 -1.103e-20)
(2.82545 0.697267 -2.13556e-20)
(2.54907 0.78566 5.2407e-21)
(2.24743 0.883879 -5.82069e-21)
(1.91957 0.992233 -1.36956e-20)
(1.56315 1.11085 0)
(1.17917 1.23441 -8.92888e-21)
(0.757424 1.30553 1.11578e-20)
(0.260829 0.966202 1.42763e-20)
(5.36258 0.0216299 -4.45859e-20)
(5.3527 0.0245692 -5.25479e-21)
(5.34148 0.0276132 5.70195e-21)
(5.32888 0.0308928 -6.88141e-21)
(5.31482 0.0344861 3.69034e-21)
(5.29917 0.0384429 3.91899e-20)
(5.28175 0.0428146 0)
(5.26241 0.0476601 0)
(5.24094 0.0530501 0)
(5.21713 0.0590549 1.53128e-20)
(5.19076 0.0657574 1.79464e-20)
(5.16151 0.0732566 0)
(5.12907 0.0816625 3.02221e-20)
(5.09312 0.0910917 -3.90748e-21)
(5.05328 0.101685 -1.97288e-20)
(5.00911 0.113605 -2.36895e-20)
(4.96012 0.127033 -5.76862e-20)
(4.90579 0.142179 0)
(4.84554 0.159282 -2.09793e-20)
(4.7787 0.178614 -2.53285e-20)
(4.70456 0.200486 -4.0197e-21)
(4.62234 0.225254 9.30284e-21)
(4.53114 0.253318 -1.11917e-20)
(4.43004 0.285133 6.44839e-21)
(4.31799 0.32121 0)
(4.19387 0.36212 -1.90658e-20)
(4.05649 0.408497 0)
(3.90456 0.461038 -1.74073e-20)
(3.73674 0.520497 1.58437e-20)
(3.55164 0.587686 -1.48795e-20)
(3.34781 0.663457 2.2647e-20)
(3.12383 0.748684 1.96991e-20)
(2.87826 0.84424 3.94632e-20)
(2.60976 0.950954 0)
(2.31699 1.06956 -5.53599e-21)
(1.99904 1.20054 6.54831e-21)
(1.65364 1.34419 -1.41554e-20)
(1.28113 1.4941 1.69393e-20)
(0.865563 1.58054 -1.01792e-20)
(0.340402 1.16668 -6.27121e-21)
(5.36333 0.0254905 2.54121e-20)
(5.35363 0.0289415 9.49359e-21)
(5.34257 0.0325226 0)
(5.33016 0.0363795 -6.5351e-21)
(5.31631 0.040604 3.62313e-20)
(5.30087 0.0452559 -3.77495e-20)
(5.28369 0.0503956 4.65023e-21)
(5.26461 0.0560918 0)
(5.24344 0.0624272 -3.277e-21)
(5.21995 0.0694845 3.52488e-21)
(5.19395 0.0773598 -1.72456e-20)
(5.16512 0.0861694 1.53074e-20)
(5.13316 0.0960426 3.12863e-20)
(5.09775 0.107115 0)
(5.05853 0.119551 3.69954e-20)
(5.01507 0.13354 2.26642e-20)
(4.9669 0.149295 2.38706e-20)
(4.91351 0.167059 3.24051e-20)
(4.85434 0.187111 3.93874e-20)
(4.78875 0.209767 2.99547e-20)
(4.71606 0.23539 -3.77931e-21)
(4.6355 0.264392 -3.48658e-20)
(4.54625 0.297238 -4.26267e-22)
(4.4474 0.334458 3.08947e-20)
(4.33796 0.376642 -2.97526e-20)
(4.21687 0.424454 1.81327e-20)
(4.083 0.478627 -5.5862e-21)
(3.93514 0.539968 6.1598e-21)
(3.77202 0.60935 -1.53181e-20)
(3.59234 0.687713 0)
(3.39475 0.776042 -3.68072e-20)
(3.17791 0.875352 -3.12466e-20)
(2.94048 0.986663 -7.2734e-21)
(2.68121 1.11095 -1.26165e-20)
(2.39884 1.24911 -2.14355e-22)
(2.09254 1.40175 1.70544e-20)
(1.76009 1.56939 1.31774e-20)
(1.40125 1.74441 0)
(0.992876 1.845 1.7058e-20)
(0.434024 1.3581 5.57976e-21)
(5.36422 0.029316 -7.27538e-20)
(5.35471 0.0332681 9.02878e-21)
(5.34385 0.0373776 5.42568e-21)
(5.33166 0.0418023 3.30633e-22)
(5.31803 0.0466474 -6.74085e-21)
(5.30284 0.051983 0)
(5.28593 0.0578778 0)
(5.26716 0.0644102 -4.17053e-20)
(5.24632 0.0716743 -3.02289e-20)
(5.22321 0.0797649 -2.08789e-20)
(5.19764 0.0887912 0)
(5.16929 0.0988857 -1.99563e-20)
(5.13788 0.110196 -4.18586e-20)
(5.1031 0.122877 -7.0448e-21)
(5.0646 0.137116 -3.55266e-20)
(5.02195 0.153127 2.1198e-20)
(4.97472 0.171152 0)
(4.92241 0.191468 -3.13782e-20)
(4.86448 0.21439 -2.38351e-20)
(4.80033 0.240278 5.45436e-21)
(4.7293 0.269542 0)
(4.65067 0.302648 3.72854e-20)
(4.56365 0.340124 3.95418e-22)
(4.46738 0.382565 -5.26843e-20)
(4.36093 0.430641 6.11967e-22)
(4.24331 0.485098 -3.31669e-20)
(4.11347 0.546764 0)
(3.97026 0.616548 0)
(3.81253 0.695436 -2.77172e-20)
(3.63905 0.784484 4.30285e-21)
(3.44858 0.884803 1.50853e-20)
(3.23989 0.99754 0)
(3.01175 1.12385 2.61535e-20)
(2.76302 1.26485 7.21971e-21)
(2.49252 1.42159 1.32566e-20)
(2.19954 1.59482 -1.97058e-20)
(1.88189 1.78524 -1.1529e-20)
(1.53879 1.98391 3.47656e-22)
(1.13847 2.09721 -2.35106e-20)
(0.540686 1.53872 9.87855e-21)
(5.36522 0.0331008 5.16655e-22)
(5.35596 0.037542 0)
(5.34531 0.0421699 -4.00208e-20)
(5.33336 0.0471514 0)
(5.31999 0.0526054 5.25084e-20)
(5.30508 0.0586114 0)
(5.28849 0.0652466 0)
(5.27005 0.0725986 4.02264e-20)
(5.2496 0.0807722 7.48819e-20)
(5.22691 0.0898744 2.0242e-20)
(5.20182 0.100026 0)
(5.17403 0.111376 3.75794e-20)
(5.14323 0.12409 2.30634e-20)
(5.10916 0.13834 0)
(5.07146 0.154335 0)
(5.02974 0.172313 -2.04e-20)
(4.98357 0.192545 -2.42287e-20)
(4.93248 0.215338 3.84496e-21)
(4.87595 0.241042 -4.2794e-21)
(4.81341 0.270057 0)
(4.74425 0.302838 -2.53904e-20)
(4.66778 0.339901 0)
(4.58326 0.381831 3.64586e-20)
(4.48989 0.429287 2.23081e-20)
(4.3868 0.483009 1.97852e-20)
(4.27308 0.543823 1.24846e-20)
(4.14774 0.612641 -4.50237e-21)
(4.00975 0.690467 0)
(3.85803 0.778388 8.28044e-22)
(3.69148 0.877569 3.01791e-20)
(3.50897 0.989239 2.23172e-20)
(3.30939 1.11466 -5.10973e-21)
(3.09163 1.25513 -2.48775e-20)
(2.85467 1.41188 -6.38421e-22)
(2.59743 1.5861 0)
(2.31934 1.77867 1.87692e-20)
(2.01823 1.99048 0)
(1.69279 2.21114 -5.00697e-21)
(1.30121 2.33546 6.7281e-21)
(0.659232 1.70684 0)
(5.36636 0.0368392 6.63274e-20)
(5.35735 0.0417563 0)
(5.34695 0.0468914 2.87018e-20)
(5.33526 0.0524176 5.44615e-20)
(5.32219 0.058467 -5.40924e-22)
(5.30759 0.0651288 0)
(5.29134 0.072488 -3.30522e-20)
(5.27329 0.0806408 0)
(5.25325 0.0897026 -3.85816e-20)
(5.23105 0.0997919 4.30208e-22)
(5.20649 0.111041 -7.23216e-21)
(5.1793 0.123614 -5.22345e-21)
(5.14919 0.137694 5.27865e-21)
(5.11591 0.153468 0)
(5.0791 0.171167 4.14889e-21)
(5.0384 0.191052 3.34357e-20)
(4.9934 0.21342 4.63038e-20)
(4.94366 0.238605 -2.76086e-20)
(4.88868 0.266993 3.31941e-20)
(4.82794 0.299019 0)
(4.76084 0.335178 2.44464e-20)
(4.68676 0.376036 0)
(4.605 0.422227 -3.50774e-20)
(4.51482 0.474469 2.04072e-20)
(4.41544 0.533567 6.42119e-21)
(4.306 0.600416 2.26543e-20)
(4.18562 0.676009 0)
(4.05337 0.761432 5.33103e-21)
(3.90826 0.857865 1.87581e-20)
(3.74933 0.966572 -1.09262e-21)
(3.57556 1.08888 -1.69141e-20)
(3.38597 1.22618 -4.95388e-21)
(3.1796 1.37986 5.43474e-21)
(2.95555 1.55128 1.17608e-20)
(2.71287 1.74177 -6.73012e-21)
(2.45114 1.9523 -8.08955e-21)
(2.16819 2.18396 -4.57805e-21)
(1.86214 2.42472 2.06355e-20)
(1.47979 2.55816 -5.86252e-21)
(0.788338 1.86095 0)
(5.36763 0.0405253 -6.31658e-20)
(5.3589 0.045904 7.85666e-21)
(5.34877 0.0515342 -3.65137e-20)
(5.33737 0.0575916 -8.40898e-20)
(5.32462 0.0642218 -4.84946e-20)
(5.31036 0.0715233 -5.50028e-20)
(5.29449 0.0795883 8.6354e-21)
(5.27685 0.0885213 -8.89236e-21)
(5.25728 0.0984478 0)
(5.2356 0.109497 0)
(5.21163 0.121813 7.41005e-21)
(5.1851 0.135573 -4.7538e-20)
(5.15575 0.150976 4.62769e-20)
(5.12332 0.168226 0)
(5.0875 0.187572 3.94222e-21)
(5.04791 0.209298 -3.6482e-20)
(5.0042 0.233724 -2.74784e-20)
(4.95593 0.261211 3.35652e-20)
(4.90264 0.292174 -7.52049e-20)
(4.84385 0.327083 4.59147e-21)
(4.779 0.366472 -5.94298e-21)
(4.70752 0.410945 6.58055e-21)
(4.62876 0.461187 4.24154e-21)
(4.54206 0.517966 -6.25804e-20)
(4.4467 0.582145 -2.27011e-20)
(4.34192 0.654682 0)
(4.22692 0.736638 3.17833e-20)
(4.10087 0.829176 0)
(3.96293 0.933555 -1.61475e-20)
(3.81223 1.05113 -3.31197e-20)
(3.64792 1.18331 0)
(3.46914 1.33158 -4.52391e-21)
(3.27507 1.49745 4.9566e-21)
(3.06499 1.68238 -7.24708e-21)
(2.83805 1.88781 1.32988e-20)
(2.59403 2.11477 2.12984e-20)
(2.3307 2.36459 0)
(2.0456 2.62339 4.3691e-21)
(1.67269 2.76381 -5.06833e-21)
(0.926507 1.99963 0)
(5.36902 0.0441532 6.74088e-20)
(5.3606 0.0499783 -7.89335e-21)
(5.35076 0.0560904 -2.59369e-20)
(5.33968 0.0626645 4.05176e-20)
(5.32727 0.0698597 -3.99122e-20)
(5.31339 0.0777834 9.95397e-20)
(5.29792 0.0865343 3.85406e-20)
(5.28074 0.0962252 -8.5163e-21)
(5.26168 0.106991 4.52068e-20)
(5.24056 0.118971 -5.63476e-21)
(5.21722 0.132319 0)
(5.19142 0.147227 0)
(5.16288 0.163908 -7.41776e-20)
(5.13138 0.182582 -1.20029e-20)
(5.09662 0.203514 6.96091e-21)
(5.05825 0.227009 4.5102e-21)
(5.01591 0.253408 -4.61877e-20)
(4.96923 0.283099 2.46971e-20)
(4.91778 0.316521 5.99615e-20)
(4.86109 0.354176 0)
(4.79866 0.396631 -1.55818e-20)
(4.72997 0.444529 1.90743e-20)
(4.65445 0.498595 0)
(4.57148 0.559644 3.69522e-20)
(4.48044 0.628587 7.51714e-22)
(4.38064 0.706439 -2.50499e-20)
(4.2714 0.794319 -3.07001e-20)
(4.152 0.893454 0)
(4.02171 1.00517 9.34212e-22)
(3.87982 1.1309 0)
(3.7256 1.27214 2.72112e-20)
(3.55836 1.43043 -1.56265e-20)
(3.37743 1.6074 4.68508e-21)
(3.18224 1.80456 -6.52171e-21)
(2.97211 2.0235 0)
(2.74699 2.26527 -1.93829e-20)
(2.50459 2.53142 -1.40686e-20)
(2.24178 2.80599 2.21749e-20)
(1.87824 2.9511 -4.15502e-21)
(1.07208 2.12168 5.63167e-21)
(5.37054 0.0477166 0)
(5.36245 0.0539721 -7.56711e-21)
(5.35292 0.060552 1.77878e-20)
(5.34219 0.0676274 -9.4288e-21)
(5.33015 0.0753708 4.45682e-20)
(5.31667 0.0838978 -5.7727e-20)
(5.30163 0.0933135 3.60592e-20)
(5.28494 0.103738 0)
(5.26642 0.115315 -3.39388e-20)
(5.24591 0.128194 -4.94624e-20)
(5.22326 0.142538 -1.90709e-20)
(5.19823 0.158552 -7.61116e-21)
(5.17057 0.176463 7.07534e-20)
(5.14007 0.196504 5.51057e-21)
(5.10644 0.218957 -7.12327e-21)
(5.06936 0.244144 7.95487e-21)
(5.02851 0.272427 3.48341e-20)
(4.98353 0.304214 -1.82581e-20)
(4.93403 0.339972 -2.87351e-20)
(4.87958 0.380226 4.41351e-21)
(4.81974 0.425576 1.56549e-20)
(4.75403 0.476695 -2.45087e-20)
(4.68194 0.534345 2.81976e-20)
(4.60294 0.599379 -2.90048e-20)
(4.51647 0.672752 1.0427e-20)
(4.42196 0.755523 5.68038e-22)
(4.31882 0.848861 6.78442e-21)
(4.20645 0.954046 2.77662e-20)
(4.08426 1.07246 2.9155e-20)
(3.95167 1.20559 1.616e-20)
(3.80811 1.35501 -5.10915e-20)
(3.65305 1.52232 9.25814e-22)
(3.48598 1.70922 0)
(3.30651 1.91729 -2.40825e-20)
(3.1141 2.14821 2.50034e-20)
(2.90894 2.40305 1.75476e-20)
(2.68859 2.68359 5.42169e-21)
(2.44917 2.97152 -1.38253e-20)
(2.09462 3.11885 0)
(1.22325 2.22601 -8.35659e-21)
(5.37219 0.0512091 1.27014e-20)
(5.36445 0.0578786 -7.00411e-20)
(5.35525 0.0649113 6.519e-20)
(5.34489 0.0724719 0)
(5.33324 0.0807456 0)
(5.32018 0.0898559 -4.83276e-20)
(5.30562 0.0999134 -2.82198e-20)
(5.28945 0.111046 0)
(5.27151 0.123404 0)
(5.25164 0.137149 4.30081e-20)
(5.22973 0.152451 1.87378e-20)
(5.20552 0.169525 7.27381e-21)
(5.1788 0.188615 -4.11846e-20)
(5.14935 0.209963 5.25137e-21)
(5.11693 0.233866 2.57174e-20)
(5.08123 0.260665 -3.08328e-20)
(5.04195 0.290736 0)
(4.99877 0.324509 -2.20862e-20)
(4.95133 0.362471 0)
(4.89926 0.405171 0)
(4.84215 0.453233 4.95613e-21)
(4.77958 0.50736 -5.48365e-21)
(4.71111 0.568341 -2.74036e-20)
(4.63628 0.637062 -2.86859e-21)
(4.55463 0.714513 2.29594e-20)
(4.46567 0.801788 2.26209e-20)
(4.36893 0.900096 3.20157e-20)
(4.26393 1.01076 -3.84151e-20)
(4.15022 1.1352 -4.52212e-21)
(4.02736 1.27496 -3.04265e-20)
(3.89494 1.43164 -4.18673e-21)
(3.7526 1.60691 -1.18304e-20)
(3.60001 1.80251 1.05621e-20)
(3.43696 2.02009 -1.17904e-20)
(3.26305 2.2614 -3.65534e-20)
(3.07873 2.5275 -9.35017e-21)
(2.88137 2.82036 -1.58475e-20)
(2.66611 3.11902 -1.04917e-20)
(2.31984 3.26604 -8.80383e-21)
(1.37807 2.31173 1.19141e-20)
(5.37398 0.0546241 -5.90697e-20)
(5.3666 0.0616904 5.47664e-20)
(5.35775 0.0691603 0)
(5.34777 0.0771897 3.53029e-20)
(5.33655 0.0859751 3.51767e-20)
(5.32394 0.0956472 5.2874e-20)
(5.30987 0.106323 -5.32046e-20)
(5.29425 0.118135 0)
(5.27692 0.131244 0)
(5.25774 0.145819 -4.03772e-20)
(5.2366 0.162037 0)
(5.21327 0.180126 2.83314e-20)
(5.18753 0.200339 4.46865e-21)
(5.15921 0.22293 -5.00419e-21)
(5.12805 0.248212 -3.15288e-20)
(5.0938 0.276536 6.64994e-20)
(5.05619 0.308296 4.61257e-21)
(5.0149 0.343938 1.64017e-20)
(4.96963 0.383966 0)
(4.92005 0.428951 0)
(4.86579 0.479537 -4.65785e-21)
(4.80651 0.536447 -1.57157e-20)
(4.74183 0.600496 0)
(4.67136 0.672595 3.03955e-20)
(4.59473 0.753758 -5.21292e-20)
(4.51155 0.845108 0)
(4.42147 0.947881 -2.46281e-20)
(4.32413 1.06342 0)
(4.21921 1.1932 0)
(4.10644 1.33876 1.91297e-20)
(3.98556 1.50176 2.72386e-20)
(3.85639 1.6839 -3.98543e-21)
(3.71877 1.88695 -1.72538e-20)
(3.5727 2.11257 1.90607e-20)
(3.41792 2.36262 1.68294e-20)
(3.25514 2.6381 9.0306e-21)
(3.08154 2.94107 9.47116e-21)
(2.89092 3.24783 9.74937e-21)
(2.55169 3.39187 5.96074e-21)
(1.53443 2.37808 5.80134e-21)
(5.37589 0.0579553 4.62098e-20)
(5.3689 0.0654003 0)
(5.36042 0.0732915 0)
(5.35085 0.0817732 -3.45e-20)
(5.34006 0.0910505 -7.83349e-20)
(5.32792 0.101262 0)
(5.31438 0.11253 1.01369e-21)
(5.29933 0.124994 7.64221e-21)
(5.28265 0.13882 -8.2731e-21)
(5.2642 0.154188 8.89285e-22)
(5.24387 0.17128 4.51387e-20)
(5.22145 0.190332 -2.77239e-20)
(5.19675 0.211613 0)
(5.1696 0.235382 5.10467e-21)
(5.13978 0.261964 -5.70471e-21)
(5.10705 0.291724 -5.62994e-20)
(5.07116 0.325069 0)
(5.03186 0.362459 3.94289e-20)
(4.98885 0.404412 -2.34596e-20)
(4.94186 0.451515 2.04941e-20)
(4.89059 0.504427 4.55716e-20)
(4.83472 0.563891 1.55338e-20)
(4.77396 0.630737 2.30377e-20)
(4.70801 0.705894 0)
(4.63657 0.790393 3.33773e-20)
(4.55937 0.885375 1.85145e-20)
(4.47616 0.992092 2.71954e-20)
(4.38671 1.11191 -1.2829e-20)
(4.29085 1.2463 -7.02765e-21)
(4.18844 1.39684 -2.04883e-20)
(4.07941 1.56519 -1.84144e-20)
(3.96376 1.75307 4.79218e-20)
(3.84149 1.96226 1.71232e-20)
(3.71281 2.19445 -1.85738e-20)
(3.57764 2.45152 3.37051e-21)
(3.43693 2.73443 -3.65941e-21)
(3.28763 3.04528 3.42875e-21)
(3.12189 3.35741 -3.75422e-21)
(2.78796 3.49567 -7.82196e-21)
(1.6901 2.42447 1.24374e-21)
(5.37795 0.0611982 -3.24905e-20)
(5.37134 0.0689997 3.75777e-20)
(5.36324 0.0772974 0)
(5.35411 0.0862148 0)
(5.34377 0.0959637 7.22484e-22)
(5.33213 0.106691 -4.27159e-20)
(5.31913 0.118525 7.42277e-21)
(5.30469 0.13161 2.11654e-20)
(5.28868 0.146119 -2.80148e-20)
(5.27099 0.16224 3.33658e-20)
(5.2515 0.180161 -1.12142e-21)
(5.23004 0.200126 0)
(5.20642 0.222415 0)
(5.1805 0.247293 0)
(5.15207 0.275097 0)
(5.12093 0.306201 2.71404e-20)
(5.08684 0.341024 0)
(5.04959 0.380035 -4.35029e-20)
(5.00893 0.423767 2.84135e-20)
(4.96463 0.472816 -2.03337e-20)
(4.91643 0.527854 -3.58854e-20)
(4.86409 0.589634 1.85585e-20)
(4.80738 0.658999 -1.20923e-20)
(4.74607 0.736887 3.80983e-20)
(4.67997 0.824339 -3.67096e-20)
(4.6089 0.922502 -1.80945e-20)
(4.53272 1.03263 -2.10057e-20)
(4.45134 1.1561 0)
(4.36472 1.29439 1.39011e-20)
(4.27289 1.44906 3.0395e-20)
(4.17593 1.62178 1.35202e-20)
(4.07403 1.81425 -3.31649e-20)
(3.96737 2.02827 -1.09281e-20)
(3.85637 2.26549 1.94998e-20)
(3.74111 2.52785 2.96491e-21)
(3.62279 2.81621 2.81129e-21)
(3.49809 3.13264 -8.19919e-21)
(3.3572 3.44736 0)
(3.02632 3.57695 1.00113e-21)
(1.84276 2.45048 -4.59812e-21)
(5.38017 0.0643504 3.23971e-20)
(5.37392 0.0724819 -5.51545e-20)
(5.36623 0.0811706 -4.81456e-20)
(5.35755 0.0905081 0)
(5.34768 0.100707 4.58966e-20)
(5.33654 0.111926 -1.45741e-20)
(5.32411 0.124297 5.99879e-20)
(5.3103 0.137972 -4.12474e-20)
(5.295 0.153128 3.52327e-20)
(5.27809 0.169962 -3.10557e-20)
(5.25949 0.188666 -4.2365e-20)
(5.23903 0.209491 0)
(5.21653 0.232725 0)
(5.19188 0.258642 0)
(5.1649 0.287585 -2.08892e-20)
(5.13539 0.319939 -2.4864e-20)
(5.10316 0.356129 3.34572e-20)
(5.06803 0.396634 -3.94134e-20)
(5.0298 0.441994 -2.07746e-20)
(4.98826 0.492814 6.5011e-21)
(4.94322 0.549772 -3.99934e-20)
(4.8945 0.613629 -1.81575e-20)
(4.84194 0.685231 -1.60467e-20)
(4.78538 0.765518 -3.08186e-20)
(4.72472 0.855534 6.62426e-20)
(4.65989 0.956422 -3.95086e-21)
(4.59087 1.06943 -4.7734e-21)
(4.51768 1.19593 2.57915e-20)
(4.44043 1.33738 -1.16312e-20)
(4.35931 1.49532 -1.77066e-20)
(4.27456 1.67142 2.19892e-20)
(4.18653 1.86733 1.34276e-20)
(4.09562 2.08486 0)
(4.00243 2.32559 -1.01552e-20)
(3.90721 2.59149 0)
(3.81142 2.88328 0)
(3.71136 3.20302 8.78852e-21)
(3.59494 3.51743 0)
(3.26434 3.63544 0)
(1.98995 2.45592 0)
(5.38258 0.067356 -5.07577e-20)
(5.37664 0.0758443 0)
(5.36938 0.0849079 1.06847e-19)
(5.36116 0.0946456 -6.03347e-20)
(5.35176 0.105274 0)
(5.34116 0.116959 4.54567e-20)
(5.32932 0.129839 -5.57177e-21)
(5.31616 0.14407 6.74131e-21)
(5.3016 0.159837 -7.30515e-21)
(5.2855 0.177342 6.87566e-20)
(5.26782 0.196779 -3.93635e-20)
(5.24838 0.218409 0)
(5.22705 0.242527 -2.79626e-20)
(5.20371 0.26941 4.3841e-21)
(5.17821 0.299409 3.54271e-20)
(5.15039 0.332915 4.17351e-20)
(5.12008 0.37036 -2.21183e-20)
(5.08713 0.412228 3.88094e-20)
(5.05138 0.459063 -3.9562e-21)
(5.01267 0.511476 6.08973e-21)
(4.97086 0.570147 2.16872e-20)
(4.92583 0.635837 0)
(4.87749 0.70939 2.34115e-20)
(4.82576 0.791744 -2.69293e-20)
(4.77063 0.883932 -2.65783e-20)
(4.71212 0.987088 -3.79856e-21)
(4.65032 1.10245 4.1724e-21)
(4.5854 1.23134 -2.01567e-20)
(4.51758 1.37522 1.1403e-20)
(4.44722 1.53559 -1.46009e-20)
(4.37471 1.71407 -1.07923e-20)
(4.30059 1.91229 1.71104e-20)
(4.22543 2.13199 -1.0975e-20)
(4.15003 2.3747 0)
(4.07482 2.6424 5.16621e-21)
(4.0015 2.93561 1.95807e-21)
(3.92588 3.25639 -4.93446e-21)
(3.83319 3.56757 1.37042e-21)
(3.49953 3.67108 -1.97391e-22)
(2.12912 2.44077 -1.16542e-21)
(5.38504 0.0703041 3.99265e-20)
(5.3795 0.0790415 -5.78152e-21)
(5.37273 0.0885028 -4.57341e-20)
(5.36495 0.0986233 1.29847e-21)
(5.35603 0.109657 0)
(5.34598 0.121782 -3.78774e-20)
(5.33474 0.13514 0)
(5.32226 0.149895 -6.46476e-21)
(5.30844 0.166233 7.00737e-21)
(5.29319 0.184366 -3.76537e-20)
(5.27645 0.204489 4.34194e-20)
(5.25808 0.226867 0)
(5.23794 0.251804 5.41171e-20)
(5.21595 0.279579 0)
(5.19198 0.310549 -7.36736e-22)
(5.16588 0.345109 -2.90026e-20)
(5.13754 0.383694 6.5279e-21)
(5.10682 0.426792 3.10408e-20)
(5.07359 0.474949 8.99163e-22)
(5.03777 0.528775 0)
(4.99925 0.588949 0)
(4.95796 0.656228 3.89934e-21)
(4.91389 0.731448 -1.79615e-20)
(4.86705 0.815535 2.14045e-20)
(4.81749 0.909507 1.70157e-20)
(4.76534 1.01447 0)
(4.71079 1.13165 0)
(4.65415 1.26232 0)
(4.59577 1.4079 1.84894e-20)
(4.53613 1.56986 8.66382e-21)
(4.47582 1.74975 5.79524e-21)
(4.41553 1.94913 -7.95945e-21)
(4.35601 2.1697 1.31761e-21)
(4.29824 2.41289 3.32547e-21)
(4.24282 2.68068 -6.83022e-21)
(4.19172 2.97332 0)
(4.14008 3.29291 0)
(4.07 3.59792 0)
(3.72928 3.68403 1.10835e-21)
(2.25762 2.40527 -1.94676e-22)
(5.38765 0.0737974 -3.77998e-20)
(5.38221 0.0822044 0)
(5.37618 0.0919447 -6.35658e-21)
(5.3689 0.102434 7.14248e-20)
(5.36047 0.113851 3.85672e-22)
(5.35098 0.126388 2.83318e-20)
(5.34037 0.140193 -3.61518e-20)
(5.32858 0.155437 -5.88109e-21)
(5.31553 0.172308 -2.71291e-20)
(5.30114 0.191024 -3.10064e-20)
(5.28538 0.211782 0)
(5.26809 0.234852 1.56842e-20)
(5.24918 0.260542 -1.99517e-20)
(5.22857 0.289134 -2.60046e-20)
(5.20616 0.320988 -4.06104e-20)
(5.18183 0.356502 0)
(5.15548 0.396112 2.47345e-20)
(5.12703 0.440307 -3.44339e-20)
(5.09638 0.489631 5.18193e-21)
(5.06347 0.544691 0)
(5.02828 0.606159 0)
(4.99078 0.674783 -1.36113e-20)
(4.95101 0.751386 0)
(4.90907 0.836876 -1.81511e-20)
(4.86509 0.932244 -2.24486e-20)
(4.8193 1.03857 1.18006e-20)
(4.77201 1.15703 -1.32857e-20)
(4.7236 1.28888 -3.91586e-21)
(4.67459 1.43546 -1.39067e-20)
(4.62559 1.59817 -2.31515e-21)
(4.57733 1.77851 2.52587e-21)
(4.53069 1.97795 -1.37747e-20)
(4.48656 2.19812 6.02389e-21)
(4.44613 2.44031 2.64296e-21)
(4.41014 2.70651 3.55603e-21)
(4.38081 2.99664 5.42702e-22)
(4.35244 3.31286 -5.80782e-22)
(4.30343 3.60876 -5.13094e-24)
(3.951 3.67475 0)
(2.37264 2.34983 -1.57028e-21)
(5.39024 0.0768464 3.73037e-20)
(5.38514 0.0853825 5.37828e-21)
(5.37971 0.0952919 -5.86909e-21)
(5.37297 0.106085 0)
(5.36508 0.117851 0)
(5.35616 0.130771 3.49818e-20)
(5.34618 0.144992 4.6258e-20)
(5.3351 0.160688 -1.15871e-20)
(5.32285 0.178052 3.66442e-20)
(5.30934 0.197307 5.65977e-20)
(5.29457 0.21865 -3.41712e-20)
(5.2784 0.242352 -4.65667e-20)
(5.26073 0.26873 -2.11717e-20)
(5.24154 0.298062 4.73481e-21)