/*--------------------------------*- C++ -*----------------------------------*\
| =========                 |                                                 |
| \\      /  F ield         | OpenFOAM: The Open Source CFD Toolbox           |
|  \\    /   O peration     | Version:  v2006                                 |
|   \\  /    A nd           | Website:  www.openfoam.com                      |
|    \\/     M anipulation  |                                                 |
\*---------------------------------------------------------------------------*/
FoamFile
{
    version     2.0;
    format      ascii;
    class       volVectorField;
    location    "269";
    object      wallShearStress;
}
// * * * * * * * * * * * * * * * * * * * * * * * * * * * * * * * * * * * * * //

dimensions      [0 2 -2 0 0 0 0];


internalField   uniform (0 0 0);

boundaryField
{
    above
    {
        type            calculated;
        value           uniform (0 0 0);
    }
    top
    {
        type            calculated;
        value           uniform (0 0 0);
    }
    inlet
    {
        type            calculated;
        value           uniform (0 0 0);
    }
    outlet
    {
        type            calculated;
        value           uniform (0 0 0);
    }
    plate
    {
        type            calculated;
        value           nonuniform List<vector> 
340
(
(-0.185716 -0.0799267 5.87747e-39)
(-0.180048 -0.229439 -6.99333e-21)
(-0.197451 -0.370529 6.34755e-21)
(-0.229374 -0.512982 1.69284e-20)
(-0.271948 -0.653323 -1.02551e-20)
(-0.32414 -0.789219 4.48478e-21)
(-0.385381 -0.919215 -3.99314e-21)
(-0.45503 -1.04211 -7.0754e-21)
(-0.532346 -1.15679 -3.76158e-37)
(-0.616482 -1.26223 4.13977e-38)
(-0.706476 -1.35753 1.88079e-37)
(-0.801247 -1.44186 -4.32219e-21)
(-0.899607 -1.51454 6.17439e-21)
(-1.00026 -1.57497 -8.65592e-21)
(-1.10181 -1.62265 -4.41088e-21)
(-1.20278 -1.6572 -1.00501e-21)
(-1.3016 -1.67835 3.24998e-21)
(-1.39664 -1.68599 -4.70198e-38)
(-1.48621 -1.68012 7.3596e-22)
(-1.56851 -1.66094 -2.92718e-22)
(-1.64171 -1.62874 1.08076e-21)
(-1.70385 -1.5843 -2.35099e-38)
(-1.75244 -1.52769 0)
(-1.78595 -1.45913 5.19295e-21)
(-1.80364 -1.37937 -8.38579e-21)
(-1.80479 -1.28966 6.70973e-21)
(-1.78863 -1.19173 -7.2067e-21)
(-1.75448 -1.08755 4.01281e-21)
(-1.70199 -0.979172 0)
(-1.63131 -0.868692 -9.47759e-21)
(-1.54317 -0.758219 1.01693e-20)
(-1.43892 -0.649837 -1.64571e-20)
(-1.32054 -0.545566 1.76987e-20)
(-1.19065 -0.447317 -3.18277e-22)
(-1.05246 -0.356834 -1.00585e-20)
(-0.909682 -0.275645 3.6406e-21)
(-0.766385 -0.205017 -3.64518e-21)
(-0.626679 -0.14592 1.98119e-21)
(-0.49465 -0.0991709 1.0694e-21)
(-0.372658 -0.0643005 5.50733e-22)
(-0.271352 -0.0365932 0)
(-0.196874 -0.0174073 0)
(-0.141461 -0.00820907 0)
(-0.0997127 -0.00462928 0)
(-0.0676115 -0.00342976 0)
(-0.0423105 -0.00285646 0)
(-0.0219968 -0.00219282 0)
(-0.00563735 -0.00132474 0)
(0.00738546 -0.000418601 0)
(0.0175829 0.000318355 0)
(0.0254969 0.000788698 0)
(0.0316553 0.00102438 0)
(0.0364729 0.00112286 0)
(0.0402171 0.00117219 0)
(0.0430351 0.00121731 0)
(0.0450132 0.00126252 0)
(0.0462298 0.00129412 0)
(0.0467748 0.00130119 0)
(0.0467436 0.00128473 0)
(0.0462161 0.00125416 0)
(0.0452453 0.00122029 0)
(0.0438582 0.00119012 0)
(0.0420659 0.00116518 0)
(0.039876 0.00114352 0)
(0.0372987 0.00112364 0)
(0.0343398 0.00110556 0)
(0.0310046 0.00108958 0)
(0.0272901 0.00107681 0)
(0.0231871 0.00106708 0)
(0.0186897 0.00105789 0)
(0.0137975 0.00104904 0)
(0.00850744 0.00104044 0)
(0.00282524 0.00102959 0)
(-0.00323185 0.00101519 0)
(-0.00964711 0.000998193 0)
(-0.0163988 0.000977225 0)
(-0.0234457 0.000950282 0)
(-0.0307343 0.000917433 0)
(-0.0382044 0.000878661 0)
(-0.0457844 0.000833611 0)
(-0.0533895 0.000782357 0)
(-0.0609261 0.000725527 0)
(-0.0682962 0.000664145 0)
(-0.0754023 0.000599574 0)
(-0.0821519 0.000533382 0)
(-0.0884621 0.000467191 0)
(-0.0942635 0.000402563 0)
(-0.0995026 0.000340886 0)
(-0.104143 0.000283303 0)
(-0.108168 0.000230729 0)
(-0.111577 0.00018373 0)
(-0.114384 0.000142345 0)
(-0.116614 0.000106424 0)
(-0.118298 7.58918e-05 0)
(-0.119481 5.04572e-05 0)
(-0.120207 2.96334e-05 0)
(-0.120527 1.28505e-05 0)
(-0.120486 -4.89192e-07 0)
(-0.120129 -1.08875e-05 0)
(-0.119498 -1.8798e-05 0)
(-0.118631 -2.47043e-05 0)
(-0.117562 -2.89841e-05 0)
(-0.11632 -3.19282e-05 0)
(-0.114934 -3.3802e-05 0)
(-0.113427 -3.48204e-05 0)
(-0.111821 -3.51433e-05 0)
(-0.110135 -3.49435e-05 0)
(-0.108385 -3.43728e-05 0)
(-0.106584 -3.3516e-05 0)
(-0.104743 -3.24511e-05 0)
(-0.102874 -3.1224e-05 0)
(-0.100985 -2.98815e-05 0)
(-0.0990852 -2.84875e-05 0)
(-0.09718 -2.70677e-05 0)
(-0.0952755 -2.56443e-05 0)
(-0.0933755 -2.42461e-05 0)
(-0.0914837 -2.28756e-05 0)
(-0.0896041 -2.15404e-05 0)
(-0.0877396 -2.02257e-05 0)
(-0.0858981 -1.89117e-05 0)
(-0.0841316 -1.77085e-05 0)
(-0.0824652 -1.6648e-05 0)
(-0.0808787 -1.56561e-05 0)
(-0.0793683 -1.47392e-05 0)
(-0.0779275 -1.39049e-05 0)
(-0.0765502 -1.31434e-05 0)
(-0.0752311 -1.2446e-05 0)
(-0.0739656 -1.1805e-05 0)
(-0.0727495 -1.12143e-05 0)
(-0.0715791 -1.06685e-05 0)
(-0.0704512 -1.01631e-05 0)
(-0.0693628 -9.6938e-06 0)
(-0.0683111 -9.25672e-06 0)
(-0.067294 -8.84796e-06 0)
(-0.0663093 -8.46395e-06 0)
(-0.0653553 -8.10191e-06 0)
(-0.0644305 -7.7599e-06 0)
(-0.0635335 -7.43663e-06 0)
(-0.0626629 -7.13112e-06 0)
(-0.0618174 -6.84215e-06 0)
(-0.0609959 -6.57088e-06 0)
(-0.0601965 -6.3173e-06 0)
(-0.0594181 -6.07732e-06 0)
(-0.0586598 -5.84771e-06 0)
(-0.057921 -5.6277e-06 0)
(-0.0572011 -5.41701e-06 0)
(-0.0564994 -5.21546e-06 0)
(-0.0558153 -5.02248e-06 0)
(-0.0551482 -4.83818e-06 0)
(-0.0544973 -4.66232e-06 0)
(-0.0538622 -4.49523e-06 0)
(-0.0532419 -4.33649e-06 0)
(-0.0526359 -4.18615e-06 0)
(-0.0520433 -4.04332e-06 0)
(-0.0514636 -3.90765e-06 0)
(-0.0508963 -3.77757e-06 0)
(-0.0503408 -3.65281e-06 0)
(-0.049797 -3.53244e-06 0)
(-0.0492645 -3.41619e-06 0)
(-0.0487431 -3.30369e-06 0)
(-0.0482325 -3.19497e-06 0)
(-0.0477325 -3.09025e-06 0)
(-0.0472427 -2.98964e-06 0)
(-0.0467629 -2.89228e-06 0)
(-0.0462929 -2.79932e-06 0)
(-0.045832 -2.71221e-06 0)
(-0.0453795 -2.6306e-06 0)
(-0.044935 -2.55304e-06 0)
(-0.044498 -2.4784e-06 0)
(-0.0440686 -2.40586e-06 0)
(-0.0436465 -2.33499e-06 0)
(-0.0432317 -2.26564e-06 0)
(-0.0428243 -2.1979e-06 0)
(-0.0424242 -2.13067e-06 0)
(-0.0420314 -2.06588e-06 0)
(-0.041646 -2.00096e-06 0)
(-0.041268 -1.9387e-06 0)
(-0.0408973 -1.87628e-06 0)
(-0.0405339 -1.81657e-06 0)
(-0.040178 -1.75498e-06 0)
(-0.0398297 -1.69529e-06 0)
(-0.0394897 -1.63272e-06 0)
(-0.0391576 -1.57453e-06 0)
(-0.0388341 -1.5059e-06 0)
(-0.0385217 -1.4366e-06 0)
(-0.0382193 -1.3842e-06 0)
(-0.0379226 -1.34485e-06 0)
(-0.0376288 -1.32017e-06 0)
(-0.0373374 -1.28953e-06 0)
(-0.0370512 -1.24107e-06 0)
(-0.0367759 -1.16482e-06 0)
(-0.0365189 -1.05969e-06 0)
(-0.0362859 -9.36588e-07 0)
(-0.0360815 -7.93677e-07 0)
(-0.0359113 -6.32632e-07 0)
(-0.0357797 -4.63971e-07 0)
(-0.0356869 -3.07862e-07 0)
(-0.0356292 -1.74729e-07 0)
(-0.0356001 -7.23418e-08 0)
(-0.0355931 5.82693e-09 0)
(-0.0356029 6.5763e-08 0)
(-0.0356277 1.21489e-07 0)
(-0.0356676 1.79079e-07 0)
(-0.0357246 2.45709e-07 0)
(-0.0358011 3.15452e-07 0)
(-0.0358995 3.96305e-07 0)
(-0.0360221 4.80402e-07 0)
(-0.0361711 5.66465e-07 0)
(-0.0363454 6.55656e-07 0)
(-0.0365499 7.57544e-07 0)
(-0.0367877 8.42802e-07 0)
(-0.0370455 8.80263e-07 0)
(-0.0373156 9.33788e-07 0)
(-0.0376141 1.05801e-06 0)
(-0.0379701 1.26186e-06 0)
(-0.0384043 1.52885e-06 0)
(-0.0389363 1.80285e-06 0)
(-0.0395536 1.98766e-06 0)
(-0.040217 2.10179e-06 0)
(-0.0409242 2.25581e-06 0)
(-0.0417127 2.52149e-06 0)
(-0.0426154 2.75333e-06 0)
(-0.0435737 2.79721e-06 0)
(-0.0445254 2.7496e-06 0)
(-0.0454805 2.74185e-06 0)
(-0.0464528 2.7383e-06 0)
(-0.0474268 2.57144e-06 0)
(-0.0482982 2.3061e-06 0)
(-0.0491087 2.2512e-06 0)
(-0.0499678 2.39177e-06 0)
(-0.0509044 2.51799e-06 0)
(-0.0518782 2.3938e-06 0)
(-0.0527367 2.25167e-06 0)
(-0.0536295 2.43752e-06 0)
(-0.0546669 2.71699e-06 0)
(-0.0557972 2.68284e-06 0)
(-0.0568357 2.5675e-06 0)
(-0.0578836 2.73085e-06 0)
(-0.0590511 2.73019e-06 0)
(-0.0602427 2.63368e-06 0)
(-0.061304 2.28049e-06 0)
(-0.0621845 1.72659e-06 0)
(-0.0628236 1.62661e-06 0)
(-0.0636052 1.8292e-06 0)
(-0.0644637 1.78019e-06 0)
(-0.0652132 1.44008e-06 0)
(-0.0657794 1.04792e-06 0)
(-0.0661825 7.32435e-07 0)
(-0.0664673 5.11955e-07 0)
(-0.0666695 3.5733e-07 0)
(-0.066812 2.44703e-07 0)
(-0.0669086 1.58055e-07 0)
(-0.0669682 8.86865e-08 0)
(-0.0669973 3.23052e-08 0)
(-0.0670006 -1.478e-08 0)
(-0.0669823 -5.27342e-08 0)
(-0.0669453 -8.59791e-08 0)
(-0.0668926 -1.12359e-07 0)
(-0.0668261 -1.35924e-07 0)
(-0.0667476 -1.54982e-07 0)
(-0.0666587 -1.69878e-07 0)
(-0.0665604 -1.86453e-07 0)
(-0.066454 -1.92499e-07 0)
(-0.0663401 -2.06468e-07 0)
(-0.0662198 -2.1064e-07 0)
(-0.0660938 -2.19539e-07 0)
(-0.065963 -2.22708e-07 0)
(-0.0658278 -2.28401e-07 0)
(-0.0656885 -2.31426e-07 0)
(-0.0655448 -2.37273e-07 0)
(-0.0653969 -2.38649e-07 0)
(-0.0652453 -2.43807e-07 0)
(-0.0650908 -2.41409e-07 0)
(-0.0649336 -2.46987e-07 0)
(-0.0647744 -2.41925e-07 0)
(-0.0646121 -2.45099e-07 0)
(-0.0644481 -2.43982e-07 0)
(-0.0642829 -2.42413e-07 0)
(-0.0641172 -2.39644e-07 0)
(-0.0639512 -2.37216e-07 0)
(-0.0637893 -2.34972e-07 0)
(-0.0636301 -2.3239e-07 0)
(-0.0634689 -2.30042e-07 0)
(-0.0633059 -2.26482e-07 0)
(-0.0631416 -2.23413e-07 0)
(-0.062976 -2.19976e-07 0)
(-0.0628086 -2.17183e-07 0)
(-0.0626398 -2.13438e-07 0)
(-0.0624698 -2.10337e-07 0)
(-0.0622983 -2.10355e-07 0)
(-0.0621258 -1.99674e-07 0)
(-0.0619519 -2.04837e-07 0)
(-0.0617773 -1.92062e-07 0)
(-0.0616016 -1.97831e-07 0)
(-0.0614256 -1.83918e-07 0)
(-0.0612482 -1.92108e-07 0)
(-0.0610707 -1.756e-07 0)
(-0.0608924 -1.78326e-07 0)
(-0.0607137 -1.73502e-07 0)
(-0.0605345 -1.71436e-07 0)
(-0.0603546 -1.66877e-07 0)
(-0.060174 -1.64374e-07 0)
(-0.0599934 -1.59277e-07 0)
(-0.0598126 -1.56924e-07 0)
(-0.0596316 -1.52314e-07 0)
(-0.0594501 -1.50385e-07 0)
(-0.0592681 -1.52135e-07 0)
(-0.0590863 -1.37213e-07 0)
(-0.0589044 -1.43819e-07 0)
(-0.0587227 -1.31427e-07 0)
(-0.0585405 -1.36382e-07 0)
(-0.0583583 -1.25451e-07 0)
(-0.058176 -1.28379e-07 0)
(-0.0579942 -1.19307e-07 0)
(-0.0578124 -1.20936e-07 0)
(-0.0576306 -1.18308e-07 0)
(-0.0574489 -1.15053e-07 0)
(-0.0572676 -1.11971e-07 0)
(-0.0570866 -1.09004e-07 0)
(-0.0569059 -1.06195e-07 0)
(-0.0567255 -1.0372e-07 0)
(-0.0565454 -1.01438e-07 0)
(-0.0563657 -9.85282e-08 0)
(-0.0561868 -9.2217e-08 0)
(-0.056008 -9.6026e-08 0)
(-0.05583 -8.40938e-08 0)
(-0.055652 -9.61895e-08 0)
(-0.0554753 -7.71991e-08 0)
(-0.0552982 -9.36257e-08 0)
(-0.0551227 -6.97874e-08 0)
(-0.0549466 -9.23456e-08 0)
(-0.0547718 -7.85307e-08 0)
(-0.0545973 -7.57425e-08 0)
(-0.0544227 -7.46591e-08 0)
(-0.0542496 -7.30238e-08 0)
(-0.0540721 -7.09269e-08 0)
(-0.0539078 -7.38133e-08 0)
(-0.0536956 -5.96814e-08 0)
(-0.0536208 -6.94196e-08 0)
(-0.0532904 -7.68859e-08 0)
)
;
    }
    defaultFaces
    {
        type            empty;
    }
}


// ************************************************************************* //
