/*--------------------------------*- C++ -*----------------------------------*\
| =========                 |                                                 |
| \\      /  F ield         | OpenFOAM: The Open Source CFD Toolbox           |
|  \\    /   O peration     | Version:  v2006                                 |
|   \\  /    A nd           | Website:  www.openfoam.com                      |
|    \\/     M anipulation  |                                                 |
\*---------------------------------------------------------------------------*/
FoamFile
{
    version     2.0;
    format      ascii;
    class       volScalarField;
    location    "100";
    object      epsilon;
}
// * * * * * * * * * * * * * * * * * * * * * * * * * * * * * * * * * * * * * //

dimensions      [0 2 -3 0 0 0 0];


internalField   nonuniform List<scalar> 
1250
(
8.34137e-05
0.000105341
0.000122497
0.00013614
0.000152978
0.000159296
0.000172171
0.000202449
0.000350093
0.00450825
0.0222044
0.0353385
0.0443033
0.0513157
0.0573002
0.0622515
0.0664496
0.0700766
0.0734438
0.076776
0.079922
0.0829802
0.0856377
0.0880789
0.0903738
0.0925457
0.0945301
0.0964358
0.0982919
0.0999021
0.101423
0.102686
0.103934
0.105088
0.105827
0.106718
0.107749
0.108186
0.10914
0.109949
0.110519
0.111087
0.111486
0.111543
0.112145
0.112238
0.112238
0.112546
0.112555
0.112396
8.34395e-05
0.000105185
0.000122701
0.00013615
0.000152999
0.0001593
0.000172279
0.000203551
0.000331323
0.00432737
0.0221544
0.035255
0.0442047
0.0512011
0.0571641
0.062097
0.0662841
0.0699004
0.0732605
0.0765762
0.0797198
0.0827395
0.0853976
0.087834
0.090125
0.0922932
0.0942776
0.0961811
0.0980349
0.099646
0.101169
0.102435
0.103685
0.10483
0.105549
0.106436
0.107475
0.107921
0.108883
0.109696
0.110267
0.110836
0.111237
0.111293
0.111897
0.11199
0.111991
0.1123
0.112308
0.112149
8.34452e-05
0.000105322
0.000122344
0.000136112
0.000152986
0.000159338
0.00017204
0.000203546
0.000331725
0.00418929
0.0220898
0.0351838
0.0441335
0.0511261
0.0570714
0.0619745
0.0661632
0.0697802
0.0731398
0.0764548
0.079619
0.0826224
0.0852829
0.08772
0.090012
0.0921817
0.0941675
0.0960728
0.0979302
0.0995424
0.101068
0.102339
0.103592
0.104737
0.105449
0.106318
0.107361
0.107822
0.108796
0.109614
0.110188
0.110757
0.111158
0.111215
0.111819
0.111912
0.111914
0.112224
0.112231
0.112072
8.35134e-05
0.000105222
0.000122609
0.000136125
0.000152968
0.000159304
0.000172059
0.000204282
0.000336063
0.00432307
0.0220119
0.0351374
0.0441056
0.0511118
0.0570703
0.0619816
0.0661794
0.0698075
0.0731716
0.0764977
0.0796677
0.0826843
0.0853475
0.0877905
0.0900873
0.0922617
0.0942492
0.096158
0.0980203
0.0996333
0.101162
0.102433
0.103685
0.104825
0.105535
0.106423
0.107473
0.107931
0.108901
0.109718
0.110292
0.110862
0.111264
0.111321
0.111925
0.112018
0.112021
0.112329
0.112337
0.112179
8.34575e-05
0.000105331
0.000122267
0.00013611
0.00015299
0.000159265
0.000172407
0.000202379
0.00033105
0.00449007
0.022089
0.0352519
0.0442359
0.0512629
0.0572524
0.0622063
0.0664118
0.0700479
0.0734191
0.0767588
0.0799229
0.0829811
0.0856421
0.0880878
0.0903868
0.0925631
0.09455
0.0964595
0.098321
0.0999323
0.101457
0.102722
0.103971
0.105118
0.105852
0.106755
0.107794
0.108237
0.109193
0.110003
0.110574
0.111143
0.111542
0.111601
0.112201
0.112295
0.112296
0.112602
0.112611
0.112453
8.6442e-05
8.73927e-05
9.08776e-05
9.74905e-05
0.000105754
0.000112894
0.000119334
0.000129892
0.000146475
0.000368884
0.00204575
0.00720993
0.0134159
0.0187116
0.0239463
0.0283413
0.0324014
0.0359342
0.0392199
0.042569
0.0452772
0.047744
0.0494962
0.0513764
0.053065
0.0546716
0.0561706
0.0576797
0.0592186
0.0607109
0.0621864
0.0634766
0.0648032
0.0660723
0.0670526
0.0677704
0.0688882
0.0690027
0.070282
0.0715897
0.0724867
0.0733319
0.0741609
0.0741984
0.0749735
0.0753493
0.0753276
0.0758475
0.0758503
0.0757952
8.6442e-05
8.73941e-05
9.0895e-05
9.74478e-05
0.000105886
0.000112916
0.000119351
0.000129941
0.000147783
0.000395542
0.00218642
0.00698782
0.0131998
0.018579
0.0237633
0.0282099
0.0322377
0.0357654
0.0392625
0.0426194
0.0452331
0.0475881
0.0494353
0.0512426
0.0529241
0.0545278
0.0561548
0.0576742
0.0591639
0.0607068
0.0621788
0.0634787
0.0648089
0.0660762
0.0669768
0.0675643
0.0686823
0.0688352
0.0701722
0.0714779
0.0723733
0.0732091
0.0740293
0.0740597
0.0748319
0.0751942
0.0751927
0.0757082
0.0756976
0.0756388
8.6442e-05
8.73916e-05
9.09002e-05
9.74758e-05
0.000105709
0.000112899
0.000119282
0.000130139
0.000147581
0.000344724
0.00194982
0.00720012
0.0133307
0.0186007
0.0236217
0.0280922
0.0321076
0.0356503
0.0393143
0.0426731
0.0453171
0.0475013
0.0494875
0.0512944
0.0529736
0.0545795
0.0562011
0.0577144
0.0592269
0.0607085
0.0621786
0.0635158
0.0648362
0.0659675
0.0666708
0.0672764
0.0685008
0.0687152
0.0701148
0.071439
0.0723383
0.0731716
0.0739908
0.0740166
0.0747896
0.0751108
0.0751925
0.0756748
0.075643
0.0755916
8.64421e-05
8.73923e-05
9.08767e-05
9.75105e-05
0.000105735
0.000112926
0.000119154
0.000130755
0.000147815
0.000380754
0.00207805
0.00727767
0.0133915
0.0186167
0.0237886
0.0282548
0.0321347
0.0357866
0.0393078
0.0426399
0.0453717
0.047534
0.0495297
0.0513666
0.0530506
0.0546601
0.0561993
0.0576997
0.0592606
0.0606547
0.0621226
0.0634499
0.0647643
0.0659037
0.0666652
0.0673081
0.0685268
0.068728
0.0701223
0.0714594
0.0723665
0.0732086
0.0740366
0.0740671
0.0748445
0.075173
0.0752528
0.0757343
0.0757044
0.0756576
8.64422e-05
8.73929e-05
9.08838e-05
9.74656e-05
0.000105873
0.000112941
0.000119208
0.000130272
0.000147228
0.000337368
0.00192501
0.00698999
0.0131744
0.0186659
0.0239312
0.0283566
0.0322915
0.0359159
0.0392424
0.0425851
0.0453372
0.0476868
0.0495254
0.0514181
0.0531082
0.0547191
0.0561892
0.0576887
0.0592562
0.0606467
0.0621212
0.0634439
0.0647719
0.0659819
0.0669094
0.0676235
0.0687878
0.0689391
0.0702517
0.0715833
0.0724883
0.0733383
0.0741716
0.0742132
0.0749862
0.075368
0.0753666
0.0758717
0.0758682
0.0758142
0.000106295
0.000114393
0.000131458
0.000166496
0.000202717
0.000241782
0.000296003
0.000357057
0.000404566
0.000473451
0.000614186
0.000983081
0.00184517
0.00400818
0.00701346
0.0102746
0.0137811
0.0171791
0.0205721
0.023964
0.0267652
0.0286133
0.0299964
0.0312658
0.0323556
0.0332669
0.0341744
0.0351355
0.0360604
0.0369053
0.038019
0.0388183
0.0397307
0.0406791
0.0417794
0.0423652
0.0439289
0.04469
0.0458663
0.0473996
0.0484979
0.0495867
0.0507944
0.050871
0.0518157
0.0526997
0.0527442
0.0535223
0.0537585
0.0536076
0.000106289
0.000114341
0.000131889
0.000166772
0.000202662
0.000241443
0.000293819
0.000356736
0.00040675
0.000468436
0.000596411
0.000934409
0.0017707
0.00376927
0.00717128
0.0104812
0.013589
0.016932
0.0206574
0.024107
0.0266845
0.0286291
0.0300277
0.0311869
0.0322394
0.0331716
0.0341017
0.0350663
0.0360431
0.0369838
0.0379786
0.0388166
0.0396689
0.0407053
0.0418104
0.0424019
0.0438683
0.0445469
0.0458157
0.0473758
0.0484793
0.0495678
0.0507635
0.0508269
0.0517578
0.0526282
0.0526939
0.0534568
0.0536674
0.053522
0.000106297
0.000114342
0.000131119
0.00016665
0.000202213
0.000242175
0.000294588
0.000356782
0.000406686
0.000472072
0.000611444
0.00097369
0.00180978
0.00393331
0.0069612
0.0102228
0.013723
0.0171
0.020514
0.0241094
0.0266923
0.0286039
0.0300016
0.0311258
0.0321657
0.0331166
0.0341836
0.0351614
0.0361531
0.0370564
0.0380683
0.0389116
0.0397576
0.0407469
0.0418179
0.0424446
0.0438506
0.0444048
0.0457438
0.0473454
0.0484694
0.0495572
0.0507491
0.0508067
0.0517328
0.0526058
0.0526881
0.053451
0.0535042
0.0535482
0.000106287
0.000114352
0.000131755
0.000166722
0.000203223
0.000240929
0.000296081
0.000356422
0.000406557
0.000472358
0.000600375
0.000969856
0.00190281
0.00372086
0.00709147
0.0103615
0.0138077
0.0172164
0.0207074
0.0240169
0.0267228
0.0286222
0.0299474
0.0311824
0.0322798
0.033234
0.0342581
0.0352329
0.0361996
0.0370266
0.0380965
0.0389247
0.0398074
0.0407387
0.0417987
0.0424302
0.0438719
0.0444206
0.04573
0.0473322
0.0484466
0.0495281
0.0507393
0.0508064
0.0517449
0.0526267
0.0527155
0.0534901
0.05354
0.0535881
0.000106306
0.000114335
0.00013119
0.000166373
0.000202741
0.000240987
0.000293605
0.000356523
0.000405965
0.000469788
0.000589171
0.000929147
0.00176484
0.00384879
0.00722379
0.0105474
0.0136228
0.0169972
0.0204785
0.0240953
0.0266436
0.0286082
0.0299664
0.0312524
0.0323633
0.0332864
0.0342373
0.0352078
0.0361356
0.0369283
0.0380672
0.0388473
0.0397828
0.0406953
0.0417685
0.0423899
0.0439103
0.0446372
0.0458144
0.0473661
0.0484627
0.0495508
0.0507654
0.0508532
0.0518008
0.0526893
0.0527689
0.0535367
0.0537334
0.053618
0.000237846
0.000350051
0.000534711
0.000780099
0.00104948
0.00144629
0.00189912
0.00235667
0.00276846
0.00318079
0.00353182
0.00372484
0.00386407
0.00408632
0.00460252
0.00563162
0.00743124
0.00991742
0.0129345
0.0159648
0.0186921
0.020648
0.0224445
0.0237196
0.0245293
0.025312
0.0258877
0.0264094
0.0270694
0.0273429
0.0280919
0.0279515
0.0282406
0.0290402
0.0301961
0.0302039
0.0315928
0.0328171
0.0338468
0.0355186
0.0367788
0.0380364
0.0395066
0.0395576
0.0406531
0.0418998
0.0420989
0.0430087
0.0434581
0.0432843
0.000237275
0.000347891
0.000531206
0.000779113
0.00104818
0.00144025
0.00189598
0.0023543
0.00276563
0.0031806
0.00352785
0.00373334
0.00385705
0.00412282
0.00457601
0.00571375
0.00750962
0.0100551
0.0127574
0.015735
0.0184415
0.0207843
0.0223128
0.0235644
0.0246242
0.0252827
0.0259127
0.0264596
0.0270222
0.0272885
0.0280321
0.0278169
0.0280888
0.0289575
0.0301759
0.030253
0.0315611
0.032796
0.0338687
0.0355448
0.036766
0.038061
0.0394627
0.0395604
0.0406172
0.0418259
0.0423689
0.0430416
0.0433965
0.0432256
0.000238139
0.000348627
0.000527017
0.000778941
0.00104867
0.00144513
0.00189831
0.00235677
0.00276771
0.00318475
0.00352823
0.00372956
0.00385667
0.00408362
0.00457874
0.00575302
0.0076397
0.00986162
0.0128924
0.0158804
0.018613
0.0206262
0.0224083
0.0236832
0.02449
0.0253392
0.0259953
0.0264247
0.0271151
0.0273905
0.0281097
0.0280269
0.0281537
0.0289771
0.0302249
0.0302732
0.0315868
0.0327557
0.0338094
0.035557
0.0367354
0.038028
0.0394675
0.0395415
0.0406203
0.0418385
0.0424351
0.0430854
0.0432213
0.0432846
0.000236753
0.000350536
0.000534478
0.000780633
0.00105039
0.00144119
0.0018978
0.00235583
0.00276617
0.00318249
0.0035292
0.00373497
0.00386219
0.00409936
0.00463965
0.00565495
0.00745411
0.00998055
0.0130116
0.0160438
0.018428
0.0207318
0.0222634
0.0235283
0.0245697
0.0253864
0.0260498
0.0265583
0.0270061
0.0272798
0.0280123
0.0280834
0.0283005
0.0290557
0.030291
0.0303147
0.0316474
0.0327692
0.0337832
0.035542
0.0366395
0.0378989
0.039382
0.0395121
0.0406142
0.0418358
0.0424721
0.0431638
0.0432688
0.0433297
0.000237911
0.000349023
0.000528222
0.00077777
0.00104985
0.00143856
0.00189508
0.00235293
0.00276734
0.00318422
0.00352788
0.00373032
0.00386524
0.00409312
0.00454723
0.00573656
0.00759424
0.00980635
0.012757
0.0157869
0.0185354
0.0208254
0.0223932
0.0236231
0.0246475
0.0252848
0.0259029
0.0264307
0.0270849
0.027267
0.0280701
0.0279992
0.0283081
0.029053
0.0302061
0.0302499
0.0316315
0.0328034
0.03378
0.035494
0.0366811
0.0379609
0.0393822
0.0395333
0.0406314
0.0418613
0.0424076
0.0430978
0.0432497
0.0433343
0.00477609
0.00494738
0.00507154
0.00515013
0.00519011
0.00521215
0.00525003
0.00532885
0.00542356
0.00555721
0.00570089
0.00585578
0.00597456
0.00608526
0.00628828
0.00665347
0.00772856
0.00968447
0.0130991
0.0170552
0.0210991
0.0241599
0.0272638
0.0293548
0.0308073
0.0323713
0.0333806
0.034466
0.0346811
0.034832
0.0362834
0.037055
0.0367765
0.0383259
0.0400821
0.0397454
0.041795
0.0434955
0.0450349
0.0478013
0.0495102
0.0514312
0.0534668
0.0531417
0.0550491
0.0568842
0.0579761
0.0582879
0.0588146
0.0591332
0.00477623
0.00494743
0.00507161
0.00514962
0.00519036
0.00521212
0.00525127
0.0053272
0.00542073
0.00555663
0.00570108
0.00585636
0.00596839
0.00608477
0.00627183
0.00670872
0.00758053
0.00981999
0.0129178
0.0167358
0.0206917
0.0243433
0.0269272
0.0294594
0.0309955
0.0325218
0.0332726
0.0340738
0.0355046
0.0350672
0.0363
0.0363472
0.0366293
0.0379743
0.0396951
0.0398562
0.041974
0.0437508
0.0452062
0.0479008
0.04926
0.0517488
0.0525299
0.0531698
0.0549326
0.0568627
0.0579261
0.0582182
0.0586539
0.0590216
0.00477605
0.00494738
0.00507174
0.00514963
0.00519011
0.00521171
0.00525096
0.00532941
0.00542245
0.00555675
0.00570145
0.00585515
0.005974
0.00608473
0.00627951
0.00671532
0.0076921
0.0096017
0.0130593
0.0169091
0.0208918
0.0245266
0.027194
0.029227
0.0307421
0.0322179
0.0331784
0.0341748
0.0353463
0.0348375
0.0364821
0.037053
0.0368519
0.038275
0.0399302
0.0402468
0.0423151
0.0437098
0.0449641
0.0479061
0.0493379
0.0515693
0.0530564
0.0534997
0.0551243
0.0571461
0.0577105
0.058514
0.0593951
0.0590607
0.00477606
0.00494728
0.00507179
0.00514977
0.00519031
0.00521175
0.00525111
0.00532809
0.00542141
0.00555638
0.00570119
0.005855
0.00596919
0.00608276
0.00627034
0.00669406
0.00758464
0.00971074
0.0131832
0.0171614
0.0206499
0.0241917
0.0268437
0.029382
0.0309039
0.0323919
0.0333747
0.03444
0.0349467
0.0350512
0.0360959
0.0375653
0.0369321
0.0380547
0.0403165
0.0400616
0.0420321
0.0439521
0.0451987
0.047842
0.0487919
0.0510617
0.0521733
0.0530043
0.0549103
0.0569651
0.0579933
0.0589064
0.0596928
0.0591874
0.00477624
0.0049473
0.0050718
0.00514991
0.00519028
0.00521198
0.00525019
0.00532988
0.00542186
0.00555618
0.00570165
0.00585611
0.00597358
0.00608958
0.00626429
0.00670975
0.00766076
0.0095429
0.0128943
0.0168133
0.020807
0.0244275
0.0270907
0.0291001
0.0310553
0.0322402
0.0331556
0.0342838
0.0344618
0.034663
0.0361727
0.0365778
0.0368661
0.0383329
0.039168
0.0398906
0.0419926
0.0436697
0.0448201
0.0478784
0.049242
0.051468
0.0522907
0.0530112
0.0549085
0.0569983
0.0573396
0.0580821
0.0588852
0.0591249
)
;

boundaryField
{
    inlet
    {
        type            turbulentMixingLengthDissipationRateInlet;
        mixingLength    0.5;
        phi             phi;
        k               k;
        value           nonuniform List<scalar> 
25
(
7.7439e-05
7.7439e-05
7.7439e-05
7.7439e-05
7.7439e-05
8.64044e-05
8.64044e-05
8.64044e-05
8.64044e-05
8.64044e-05
0.000105523
0.000105523
0.000105523
0.000105523
0.000105523
0.000136504
0.000136504
0.000136504
0.000136504
0.000136504
0.000181748
0.000181748
0.000181748
0.000181748
0.000181748
)
;
    }
    outlet
    {
        type            inletOutlet;
        inletValue      uniform 1;
        value           nonuniform List<scalar> 
25
(
0.112396
0.112149
0.112072
0.112179
0.112453
0.0757952
0.0756388
0.0755916
0.0756576
0.0758142
0.0536076
0.053522
0.0535482
0.0535881
0.053618
0.0432843
0.0432256
0.0432846
0.0433297
0.0433343
0.0591332
0.0590216
0.0590607
0.0591874
0.0591249
)
;
    }
    side1
    {
        type            cyclicAMI;
        value           nonuniform List<scalar> 
250
(
8.34356e-05
8.64421e-05
0.0001063
0.000237879
0.00477616
0.000105336
8.73928e-05
0.000114364
0.000349537
0.00494734
0.000122382
9.08807e-05
0.000131324
0.000531466
0.00507166
0.000136125
9.7478e-05
0.000166435
0.000778934
0.00515001
0.000152984
0.000105813
0.000202729
0.00104967
0.00519019
0.000159281
0.000112918
0.000241384
0.00144242
0.00521206
0.000172289
0.000119271
0.000294804
0.0018971
0.00525011
0.000202414
0.000130082
0.00035679
0.0023548
0.00532936
0.000340572
0.000146851
0.000405265
0.0027679
0.00542271
0.00449916
0.000353126
0.000471619
0.0031825
0.00555669
0.0221467
0.00198538
0.000601679
0.00352985
0.00570127
0.0352952
0.00709996
0.000956117
0.00372758
0.00585594
0.0442696
0.0132951
0.00180501
0.00386465
0.00597407
0.0512893
0.0186888
0.00392849
0.00408972
0.00608741
0.0572763
0.0239388
0.00711863
0.00457488
0.00627628
0.0622289
0.028349
0.010411
0.0056841
0.00668161
0.0664307
0.0323465
0.0137019
0.00751275
0.00769466
0.0700622
0.0359251
0.0170882
0.00986189
0.00961369
0.0734315
0.0392312
0.0205253
0.0128457
0.0129967
0.0767674
0.0425771
0.0240296
0.0158759
0.0169342
0.0799224
0.0453072
0.0267044
0.0186137
0.020953
0.0829806
0.0477154
0.0286108
0.0207367
0.0242937
0.0856399
0.0495108
0.0299814
0.0224189
0.0271773
0.0880834
0.0513973
0.0312591
0.0236714
0.0292274
0.0903803
0.0530866
0.0323595
0.0245884
0.0309313
0.0925544
0.0546953
0.0332767
0.0252984
0.0323058
0.0945401
0.0561799
0.0342058
0.0258953
0.0332681
0.0964477
0.0576842
0.0351716
0.02642
0.0343749
0.0983065
0.0592374
0.0360981
0.0270772
0.0345714
0.0999172
0.0606788
0.0369168
0.0273049
0.0347475
0.10144
0.0621538
0.0380431
0.028081
0.036228
0.102704
0.0634602
0.0388328
0.0279754
0.0368164
0.103953
0.0647875
0.0397568
0.0282744
0.0368213
0.105103
0.0660271
0.0406872
0.0290466
0.0383294
0.10584
0.066981
0.041774
0.0302011
0.039625
0.106737
0.0676969
0.0423776
0.0302269
0.039818
0.107771
0.068838
0.0439196
0.0316121
0.0418938
0.108211
0.0689709
0.0446636
0.0328103
0.0435825
0.109167
0.0702669
0.0458404
0.0338134
0.0449275
0.109976
0.0715865
0.0473829
0.0355063
0.0478399
0.110546
0.0724875
0.0484803
0.03673
0.0493761
0.111115
0.0733351
0.0495688
0.0379987
0.0514496
0.111514
0.0741662
0.0507799
0.0394444
0.0528788
0.111572
0.0742058
0.0508621
0.0395455
0.0530764
0.112173
0.0749798
0.0518083
0.0406422
0.0549788
0.112267
0.0753586
0.0526945
0.0418806
0.0569412
0.112267
0.0753471
0.0527566
0.0422533
0.0576578
0.112574
0.0758596
0.0535295
0.0430533
0.058185
0.112583
0.0758592
0.0537459
0.0433539
0.0588499
0.112424
0.0758047
0.0536128
0.0433093
0.059129
)
;
    }
    side2
    {
        type            cyclicAMI;
        value           nonuniform List<scalar> 
250
(
8.34356e-05
8.64421e-05
0.000106301
0.000237884
0.00477616
0.000105336
8.73928e-05
0.000114364
0.000349542
0.00494734
0.000122382
9.08807e-05
0.000131324
0.000531471
0.00507167
0.000136125
9.74781e-05
0.000166435
0.000778939
0.00515002
0.000152984
0.000105813
0.00020273
0.00104967
0.0051902
0.000159281
0.000112918
0.000241386
0.00144243
0.00521207
0.000172289
0.000119271
0.000294805
0.0018971
0.00525011
0.000202414
0.000130082
0.000356792
0.0023548
0.00532937
0.000340572
0.000146852
0.000405267
0.0027679
0.00542271
0.00449916
0.000353126
0.000471622
0.0031825
0.0055567
0.0221467
0.00198538
0.000601681
0.00352985
0.00570127
0.0352952
0.00709996
0.000956116
0.00372758
0.00585594
0.0442696
0.0132951
0.00180501
0.00386466
0.00597407
0.0512893
0.0186887
0.00392848
0.00408972
0.00608742
0.0572763
0.0239388
0.00711862
0.00457488
0.00627629
0.0622289
0.028349
0.010411
0.00568409
0.00668161
0.0664307
0.0323464
0.0137019
0.00751274
0.00769466
0.0700622
0.0359251
0.0170881
0.00986188
0.00961368
0.0734315
0.0392312
0.0205253
0.0128457
0.0129967
0.0767674
0.0425771
0.0240296
0.0158759
0.0169342
0.0799224
0.0453072
0.0267044
0.0186137
0.020953
0.0829806
0.0477154
0.0286107
0.0207367
0.0242937
0.0856399
0.0495108
0.0299814
0.0224189
0.0271773
0.0880834
0.0513973
0.0312591
0.0236714
0.0292275
0.0903803
0.0530866
0.0323594
0.0245884
0.0309313
0.0925544
0.0546953
0.0332766
0.0252984
0.0323058
0.0945401
0.0561799
0.0342058
0.0258953
0.0332681
0.0964477
0.0576842
0.0351716
0.02642
0.0343749
0.0983065
0.0592374
0.036098
0.0270772
0.0345714
0.0999172
0.0606788
0.0369168
0.0273049
0.0347475
0.10144
0.0621538
0.0380431
0.028081
0.036228
0.102704
0.0634602
0.0388328
0.0279754
0.0368164
0.103953
0.0647875
0.0397567
0.0282744
0.0368213
0.105103
0.0660271
0.0406872
0.0290466
0.0383294
0.10584
0.066981
0.0417739
0.0302011
0.039625
0.106737
0.0676969
0.0423775
0.0302269
0.039818
0.107771
0.068838
0.0439196
0.0316121
0.0418938
0.108211
0.0689709
0.0446636
0.0328103
0.0435826
0.109167
0.0702669
0.0458403
0.0338134
0.0449275
0.109976
0.0715865
0.0473828
0.0355063
0.0478399
0.110546
0.0724874
0.0484803
0.03673
0.0493761
0.111115
0.0733351
0.0495688
0.0379987
0.0514496
0.111514
0.0741662
0.0507799
0.0394444
0.0528788
0.111572
0.0742058
0.0508621
0.0395455
0.0530764
0.112173
0.0749798
0.0518082
0.0406423
0.0549788
0.112267
0.0753586
0.0526945
0.0418806
0.0569413
0.112267
0.0753471
0.0527565
0.0422533
0.0576579
0.112574
0.0758596
0.0535295
0.0430533
0.058185
0.112583
0.0758592
0.0537459
0.0433539
0.0588499
0.112424
0.0758047
0.0536128
0.0433093
0.0591291
)
;
    }
    walls
    {
        lowReCorrection 0;
        blending        stepwise;
        n               2;
        type            epsilonWallFunction;
        value           nonuniform List<scalar> 
250
(
0.00477609
0.00477623
0.00477605
0.00477606
0.00477624
0.00494738
0.00494743
0.00494738
0.00494728
0.0049473
0.00507154
0.00507161
0.00507174
0.00507179
0.0050718
0.00515013
0.00514962
0.00514963
0.00514977
0.00514991
0.00519011
0.00519036
0.00519011
0.00519031
0.00519028
0.00521215
0.00521212
0.00521171
0.00521175
0.00521198
0.00525003
0.00525127
0.00525096
0.00525111
0.00525019
0.00532885
0.0053272
0.00532941
0.00532809
0.00532988
0.00542356
0.00542073
0.00542245
0.00542141
0.00542186
0.00555721
0.00555663
0.00555675
0.00555638
0.00555618
0.00570089
0.00570108
0.00570145
0.00570119
0.00570165
0.00585578
0.00585636
0.00585515
0.005855
0.00585611
0.00597456
0.00596839
0.005974
0.00596919
0.00597358
0.00608526
0.00608477
0.00608473
0.00608276
0.00608958
0.00628828
0.00627183
0.00627951
0.00627034
0.00626429
0.00665347
0.00670872
0.00671532
0.00669406
0.00670975
0.00772856
0.00758053
0.0076921
0.00758464
0.00766076
0.00968447
0.00981999
0.0096017
0.00971074
0.0095429
0.0130991
0.0129178
0.0130593
0.0131832
0.0128943
0.0170552
0.0167358
0.0169091
0.0171614
0.0168133
0.0210991
0.0206917
0.0208918
0.0206499
0.020807
0.0241599
0.0243433
0.0245266
0.0241917
0.0244275
0.0272638
0.0269272
0.027194
0.0268437
0.0270907
0.0293548
0.0294594
0.029227
0.029382
0.0291001
0.0308073
0.0309955
0.0307421
0.0309039
0.0310553
0.0323713
0.0325218
0.0322179
0.0323919
0.0322402
0.0333806
0.0332726
0.0331784
0.0333747
0.0331556
0.034466
0.0340738
0.0341748
0.03444
0.0342838
0.0346811
0.0355046
0.0353463
0.0349467
0.0344618
0.034832
0.0350672
0.0348375
0.0350512
0.034663
0.0362834
0.0363
0.0364821
0.0360959
0.0361727
0.037055
0.0363472
0.037053
0.0375653
0.0365778
0.0367765
0.0366293
0.0368519
0.0369321
0.0368661
0.0383259
0.0379743
0.038275
0.0380547
0.0383329
0.0400821
0.0396951
0.0399302
0.0403165
0.039168
0.0397454
0.0398562
0.0402468
0.0400616
0.0398906
0.041795
0.041974
0.0423151
0.0420321
0.0419926
0.0434955
0.0437508
0.0437098
0.0439521
0.0436697
0.0450349
0.0452062
0.0449641
0.0451987
0.0448201
0.0478013
0.0479008
0.0479061
0.047842
0.0478784
0.0495102
0.04926
0.0493379
0.0487919
0.049242
0.0514312
0.0517488
0.0515693
0.0510617
0.051468
0.0534668
0.0525299
0.0530564
0.0521733
0.0522907
0.0531417
0.0531698
0.0534997
0.0530043
0.0530112
0.0550491
0.0549326
0.0551243
0.0549103
0.0549085
0.0568842
0.0568627
0.0571461
0.0569651
0.0569983
0.0579761
0.0579261
0.0577105
0.0579933
0.0573396
0.0582879
0.0582182
0.058514
0.0589064
0.0580821
0.0588146
0.0586539
0.0593951
0.0596928
0.0588852
0.0591332
0.0590216
0.0590607
0.0591874
0.0591249
)
;
    }
}


// ************************************************************************* //
