/*--------------------------------*- C++ -*----------------------------------*\
| =========                 |                                                 |
| \\      /  F ield         | OpenFOAM: The Open Source CFD Toolbox           |
|  \\    /   O peration     | Version:  v2006                                 |
|   \\  /    A nd           | Website:  www.openfoam.com                      |
|    \\/     M anipulation  |                                                 |
\*---------------------------------------------------------------------------*/
FoamFile
{
    version     2.0;
    format      ascii;
    class       volScalarField;
    location    "100";
    object      k;
}
// * * * * * * * * * * * * * * * * * * * * * * * * * * * * * * * * * * * * * //

dimensions      [0 2 -2 0 0 0 0];


internalField   nonuniform List<scalar> 
1250
(
0.00389121
0.00404022
0.0041462
0.00421846
0.00426006
0.00426281
0.00428653
0.00438262
0.00476504
0.0193054
0.05819
0.0816037
0.0973829
0.110039
0.120138
0.128146
0.134378
0.139301
0.143569
0.147359
0.150798
0.153883
0.156478
0.158685
0.160684
0.162521
0.164092
0.16559
0.166997
0.167868
0.168855
0.168949
0.170252
0.170965
0.170964
0.171925
0.172475
0.172439
0.173302
0.173599
0.173629
0.174181
0.174212
0.174134
0.174504
0.174455
0.174255
0.174505
0.174503
0.174132
0.00389114
0.00404022
0.00414725
0.00421858
0.00426006
0.00426272
0.00428686
0.00438325
0.00477205
0.0195029
0.0580643
0.0814239
0.0971893
0.109823
0.119891
0.127906
0.134143
0.139061
0.143315
0.147077
0.150498
0.153594
0.156191
0.158398
0.160396
0.162233
0.163807
0.165305
0.166713
0.167586
0.168575
0.168668
0.169977
0.170675
0.170659
0.171626
0.172186
0.172151
0.173023
0.173322
0.17335
0.173907
0.173936
0.17386
0.17423
0.174181
0.173982
0.174232
0.17423
0.173859
0.00389127
0.00403959
0.00414717
0.00421873
0.00426004
0.00426292
0.00428684
0.00438284
0.00478931
0.019725
0.0579234
0.0812848
0.0970551
0.109698
0.119711
0.127744
0.13399
0.138912
0.143163
0.14692
0.150364
0.153462
0.15606
0.158268
0.160268
0.162108
0.163687
0.165188
0.166599
0.167475
0.168467
0.168561
0.169876
0.170571
0.170564
0.171511
0.17207
0.172043
0.172927
0.173231
0.173261
0.17382
0.173847
0.173773
0.174143
0.174095
0.173896
0.174147
0.174145
0.173774
0.00389121
0.00404024
0.00414637
0.00421859
0.00426003
0.00426279
0.00428662
0.004384
0.00478207
0.0196167
0.0578043
0.0812392
0.0970371
0.109702
0.119731
0.127774
0.134025
0.138956
0.14322
0.146992
0.150444
0.15354
0.156142
0.158353
0.160357
0.162201
0.163781
0.165285
0.166699
0.167577
0.168572
0.168669
0.169982
0.170661
0.170665
0.171623
0.172191
0.172165
0.173044
0.173347
0.173378
0.173937
0.173963
0.173891
0.174261
0.174213
0.174014
0.174265
0.174263
0.173893
0.00389124
0.00403966
0.00414701
0.00421865
0.00426005
0.00426291
0.00428728
0.00438004
0.00481343
0.0194148
0.0580107
0.0814818
0.0973016
0.10998
0.120081
0.128106
0.134347
0.139279
0.143553
0.147348
0.150808
0.153895
0.156492
0.158702
0.160705
0.162545
0.16412
0.165621
0.167032
0.167906
0.168895
0.168994
0.170295
0.171
0.171001
0.171972
0.172529
0.172499
0.17336
0.173659
0.173691
0.174242
0.174273
0.174196
0.174566
0.174518
0.174318
0.174568
0.174567
0.174196
0.0040985
0.00409947
0.00410873
0.00413031
0.0041559
0.0041718
0.00418548
0.00420959
0.00424948
0.00497104
0.0097631
0.0240705
0.0375082
0.0508513
0.0625556
0.0721117
0.080477
0.0874311
0.0935524
0.098764
0.102624
0.105762
0.108126
0.110089
0.111791
0.113458
0.114946
0.116452
0.117836
0.118722
0.119908
0.119844
0.1216
0.122665
0.122695
0.123842
0.124859
0.124724
0.125999
0.127068
0.127096
0.128155
0.128419
0.128315
0.128937
0.128979
0.12888
0.129149
0.129166
0.128834
0.0040985
0.00409948
0.00410875
0.0041302
0.00415637
0.00417192
0.00418568
0.0042108
0.00425208
0.00508595
0.0101852
0.0241346
0.0378295
0.0506681
0.0621368
0.0720521
0.0806868
0.0875842
0.0936321
0.0987787
0.102617
0.105733
0.108075
0.110015
0.111711
0.113384
0.11493
0.116431
0.117818
0.118705
0.119882
0.11981
0.121585
0.122608
0.122552
0.123555
0.124631
0.124522
0.125861
0.126913
0.126933
0.127993
0.128251
0.128138
0.128758
0.128791
0.128699
0.128971
0.12897
0.128653
0.00409849
0.00409947
0.00410874
0.00413027
0.00415588
0.00417185
0.00418536
0.00421149
0.00425019
0.00495814
0.0097143
0.0236036
0.0374499
0.050958
0.0621696
0.0723166
0.0808313
0.0877066
0.0937089
0.0986947
0.102543
0.105648
0.10797
0.109879
0.111573
0.113268
0.114892
0.116392
0.117779
0.118676
0.119836
0.119779
0.121545
0.122416
0.122154
0.123174
0.124409
0.124388
0.125792
0.126854
0.126875
0.12794
0.128191
0.128073
0.1287
0.128733
0.128645
0.128916
0.128917
0.128597
0.0040985
0.00409948
0.00410875
0.00413026
0.00415634
0.00417206
0.00418583
0.00420941
0.00425162
0.00504373
0.00998936
0.0239004
0.0375784
0.0511551
0.0625673
0.0724922
0.0807736
0.0876207
0.0936708
0.098573
0.102432
0.105539
0.107901
0.109809
0.111506
0.113203
0.114814
0.116322
0.117696
0.118602
0.119773
0.119701
0.121452
0.122359
0.122156
0.123231
0.124425
0.124419
0.125809
0.126893
0.126922
0.127994
0.128254
0.128142
0.128774
0.128809
0.128724
0.128989
0.12901
0.128673
0.00409849
0.00409947
0.00410876
0.00413034
0.00415583
0.00417182
0.00418547
0.0042105
0.00425101
0.00510829
0.0103337
0.0234805
0.0377237
0.0510745
0.0627507
0.0723441
0.080545
0.0874612
0.0935711
0.0985612
0.102455
0.105593
0.107998
0.109948
0.111652
0.11333
0.114831
0.116344
0.117726
0.118627
0.1198
0.119762
0.121504
0.12254
0.122501
0.123656
0.124651
0.124704
0.12597
0.127064
0.127101
0.128161
0.128432
0.128334
0.128956
0.128999
0.128909
0.129175
0.129198
0.12886
0.00468224
0.00471604
0.0047995
0.00494586
0.00508728
0.00519849
0.00531169
0.00540335
0.00547629
0.00562207
0.0059512
0.00688964
0.00920684
0.0151982
0.0240271
0.0326823
0.0412796
0.049351
0.057008
0.0636218
0.0679378
0.0708983
0.0726852
0.0743103
0.0754489
0.0765284
0.0774426
0.0787329
0.0792265
0.0792057
0.0807113
0.08059
0.0820229
0.0834307
0.0833632
0.0846463
0.0867977
0.0869136
0.0884958
0.0904253
0.0905422
0.0919803
0.0926232
0.0925186
0.0935832
0.0939252
0.0938443
0.0943923
0.0946593
0.0943478
0.00468224
0.00471604
0.00479964
0.00494626
0.00508724
0.00520076
0.00531341
0.00540484
0.00548006
0.0056041
0.00593046
0.00695865
0.00939811
0.0156281
0.0244771
0.033089
0.041549
0.0490674
0.0569498
0.0635065
0.0679933
0.0709567
0.0727016
0.0741994
0.0753411
0.0764165
0.0773407
0.0785788
0.0792447
0.0793076
0.0806837
0.0805295
0.0820127
0.0833056
0.0834479
0.0845971
0.0867878
0.0868829
0.0884752
0.0903632
0.0904893
0.0919364
0.0925809
0.0924602
0.0934886
0.0937031
0.0937781
0.0943564
0.0943687
0.0942745
0.00468223
0.00471612
0.00479964
0.00494566
0.00508713
0.00519895
0.00531129
0.005405
0.00548013
0.005607
0.00589034
0.0068391
0.00916647
0.0151094
0.0239157
0.0325813
0.0410192
0.0493496
0.0568254
0.0634682
0.0679988
0.0708368
0.0725567
0.0740264
0.0751942
0.0762689
0.0774137
0.0785492
0.0792698
0.0793829
0.080383
0.0805067
0.0819489
0.0832117
0.0833067
0.0844899
0.0867532
0.0868748
0.0884823
0.0903207
0.0904536
0.0919177
0.0924836
0.0923767
0.0934446
0.0936516
0.0937642
0.0943258
0.0943412
0.0942349
0.00468224
0.00471603
0.00480003
0.00494611
0.00508728
0.00520106
0.00531259
0.00540349
0.00548032
0.00561979
0.00593228
0.00691951
0.00928973
0.0153916
0.0242724
0.0329059
0.0413754
0.0489878
0.0570058
0.0636718
0.0680004
0.0707335
0.0724894
0.0739788
0.0751487
0.076228
0.0774711
0.0786885
0.0791319
0.0793559
0.0806252
0.0805252
0.0819017
0.0831642
0.0832408
0.0844625
0.0867022
0.0868693
0.0884548
0.0903283
0.0904164
0.091874
0.0924947
0.0923993
0.0934831
0.0936914
0.0938123
0.0942829
0.0945651
0.0942387
0.00468223
0.00471603
0.00479972
0.00494562
0.00508783
0.00519968
0.0053118
0.00540204
0.0054792
0.00561057
0.00587954
0.00693454
0.00945407
0.0157531
0.0246535
0.0332873
0.0409723
0.0492177
0.0567779
0.0634522
0.067869
0.0706902
0.0725076
0.0741606
0.0753212
0.0764039
0.0774861
0.0787669
0.0791863
0.0792259
0.0803554
0.0806159
0.0819013
0.0833122
0.0832702
0.0845538
0.0867114
0.0868871
0.0884519
0.0903994
0.0904776
0.0919157
0.0925757
0.0925039
0.0935805
0.093809
0.0939052
0.0944027
0.0947096
0.0943435
0.00559056
0.00576834
0.00614305
0.00681399
0.00760655
0.0086196
0.00968626
0.0106681
0.0114852
0.0122787
0.0127864
0.0129746
0.013119
0.0135784
0.0148775
0.0178145
0.0230409
0.0288135
0.0346333
0.0393874
0.0433109
0.0459542
0.0476896
0.048959
0.049812
0.050483
0.0511287
0.0511851
0.0512914
0.0511993
0.0521618
0.0527126
0.0532792
0.0542992
0.0547195
0.0551811
0.0573483
0.0574969
0.058761
0.0610356
0.0617233
0.0630358
0.0638677
0.063803
0.0649496
0.0655766
0.0657463
0.0664639
0.0665721
0.066543
0.00559058
0.00576852
0.00614391
0.00681105
0.00761141
0.00863238
0.0096886
0.010661
0.0114815
0.0122801
0.0127922
0.0129747
0.0131183
0.0136305
0.0147338
0.0180064
0.0233039
0.0290661
0.0349481
0.039681
0.0434563
0.04609
0.0475613
0.0487794
0.0496423
0.0502875
0.0511691
0.0510893
0.0511627
0.0512166
0.0521484
0.0524889
0.0530982
0.054109
0.0544104
0.055003
0.057335
0.0574029
0.0587502
0.060939
0.0617887
0.0631549
0.0637721
0.0637424
0.0649043
0.0656363
0.0655552
0.0662452
0.0666332
0.0664145
0.00559056
0.00576882
0.00614452
0.00681061
0.00760873
0.00862096
0.00968654
0.0106655
0.0114863
0.0122818
0.0128042
0.0129425
0.0131105
0.0135363
0.0149071
0.0177073
0.022909
0.0286703
0.0345536
0.0394053
0.0431735
0.0458284
0.0476453
0.0488682
0.0497335
0.0503781
0.0511547
0.0513759
0.0515554
0.051254
0.0523854
0.0521397
0.0527732
0.0539922
0.0544324
0.0549556
0.0573185
0.0574653
0.0588415
0.0609016
0.0617573
0.0631916
0.0634918
0.0637523
0.0648825
0.0655331
0.0656838
0.0662792
0.0666277
0.0663988
0.00559059
0.00576838
0.00614482
0.00680971
0.00761069
0.00862627
0.00968836
0.0106593
0.0114845
0.0122846
0.0127988
0.0129657
0.0131056
0.0135878
0.014694
0.0179135
0.023178
0.0289833
0.0347978
0.0396771
0.0433914
0.0459922
0.0477399
0.0489546
0.049813
0.0504723
0.0510988
0.0514175
0.0516833
0.0511757
0.0524072
0.0529587
0.0527465
0.0539942
0.0547135
0.0550628
0.0573393
0.05752
0.0588554
0.0610358
0.0612462
0.062855
0.0636428
0.0637753
0.0649238
0.0655417
0.0657303
0.0661858
0.0664747
0.0664892
0.00559058
0.00576869
0.00614508
0.00681108
0.00760742
0.00863512
0.00969046
0.0106676
0.0114863
0.0122771
0.0127989
0.0129368
0.0131012
0.013546
0.0147737
0.017627
0.0227933
0.0284933
0.035
0.039474
0.0431488
0.0457729
0.0475457
0.0488175
0.0496825
0.0503509
0.0512158
0.0513937
0.0517633
0.0512712
0.052359
0.0530073
0.0531227
0.0541986
0.0547979
0.0552059
0.0573435
0.0575294
0.0587877
0.0611194
0.0612313
0.0627614
0.0636623
0.0638214
0.0649627
0.0655933
0.0656811
0.0664605
0.0667965
0.0664985
0.00684818
0.00701108
0.00712798
0.00720128
0.00723862
0.00725941
0.00729338
0.00736709
0.00745519
0.00757609
0.00770514
0.00784267
0.00795636
0.00804699
0.00818435
0.00848267
0.00907299
0.0105339
0.0125629
0.0149819
0.0173849
0.0195282
0.0210029
0.0224032
0.023231
0.0240322
0.0244076
0.024851
0.0252752
0.0251128
0.0257967
0.0258196
0.0259709
0.0266237
0.0270144
0.0273122
0.0282617
0.0290828
0.0296584
0.0308873
0.0314754
0.0324991
0.0328879
0.0331367
0.0339028
0.0347156
0.0352778
0.0355838
0.0359673
0.0358292
0.00684829
0.00701116
0.00712804
0.00720086
0.00723866
0.00725951
0.00729378
0.0073663
0.00745267
0.00757533
0.00770484
0.00784354
0.00795079
0.00804564
0.00818804
0.00849183
0.00915695
0.0103946
0.0126609
0.0150928
0.0175076
0.0196353
0.0211486
0.022285
0.0231019
0.0238767
0.0243519
0.0249185
0.0249711
0.0250114
0.025758
0.0258542
0.0260355
0.0266223
0.0273907
0.0273966
0.0283483
0.0290406
0.0295632
0.0308681
0.0315598
0.0324812
0.0331079
0.0333056
0.0340095
0.0348052
0.035272
0.0355464
0.0359123
0.0357826
0.00684813
0.00701111
0.00712819
0.00720084
0.00723854
0.00725897
0.00729378
0.00736804
0.00745449
0.00757549
0.00770513
0.00784165
0.00795515
0.00804639
0.00818351
0.00847481
0.00908959
0.0104635
0.0127406
0.0152509
0.0173696
0.0194512
0.0209605
0.0223648
0.0231842
0.0239513
0.0244559
0.0249867
0.0250092
0.0250862
0.0257182
0.0257804
0.0259377
0.0264611
0.0275478
0.0273491
0.0282938
0.0291619
0.0296899
0.0307629
0.0314459
0.0324182
0.0331956
0.0332626
0.0339871
0.0348218
0.0352227
0.0356815
0.0357163
0.0358077
0.00684815
0.007011
0.00712822
0.00720094
0.00723871
0.00725898
0.0072934
0.00736713
0.00745344
0.00757513
0.00770531
0.00784289
0.00795103
0.00804585
0.00817618
0.00848697
0.00914128
0.0103538
0.0125486
0.0150257
0.0174511
0.0195704
0.0210887
0.0222064
0.0232575
0.0238665
0.0243641
0.0248434
0.025238
0.0249173
0.0257161
0.0258581
0.0259418
0.0266233
0.027103
0.0273932
0.0282499
0.0291023
0.0295711
0.03092
0.0313576
0.0323288
0.0329928
0.0333214
0.0339885
0.0348233
0.0352453
0.0357817
0.035774
0.035864
0.00684831
0.00701102
0.00712821
0.00720105
0.0072387
0.00725921
0.00729328
0.00736798
0.00745366
0.00757477
0.00770514
0.00784219
0.00795281
0.0080466
0.00819093
0.00843958
0.0091747
0.010422
0.0126617
0.0151555
0.0176083
0.0194066
0.0211709
0.0223298
0.0231245
0.0239363
0.0244468
0.0249806
0.0252322
0.0250656
0.0257098
0.0261737
0.0259851
0.0265729
0.0272958
0.0274153
0.0283059
0.029042
0.0295761
0.0307293
0.0314463
0.0323237
0.0329974
0.0332646
0.0340017
0.034806
0.0351153
0.0355254
0.0359524
0.0358272
)
;

boundaryField
{
    inlet
    {
        type            turbulentIntensityKineticEnergyInlet;
        intensity       0.05;
        value           nonuniform List<scalar> 
25
(
0.00381504
0.00381504
0.00381504
0.00381504
0.00381504
0.00410408
0.00410408
0.00410408
0.00410408
0.00410408
0.00468911
0.00468911
0.00468911
0.00468911
0.00468911
0.005567
0.005567
0.005567
0.005567
0.005567
0.0067376
0.0067376
0.00673761
0.00673761
0.00673761
)
;
    }
    outlet
    {
        type            inletOutlet;
        inletValue      uniform 1;
        value           nonuniform List<scalar> 
25
(
0.174132
0.173859
0.173774
0.173893
0.174196
0.128834
0.128653
0.128597
0.128673
0.12886
0.0943478
0.0942745
0.0942349
0.0942387
0.0943435
0.066543
0.0664145
0.0663988
0.0664892
0.0664985
0.0358292
0.0357826
0.0358077
0.035864
0.0358272
)
;
    }
    side1
    {
        type            cyclicAMI;
        value           nonuniform List<scalar> 
250
(
0.00389122
0.0040985
0.00468223
0.00559057
0.00684824
0.00403994
0.00409947
0.00471604
0.00576851
0.00701105
0.00414661
0.00410875
0.00479961
0.00614407
0.00712809
0.00421856
0.00413033
0.00494574
0.00681253
0.00720117
0.00426005
0.00415587
0.00508755
0.00760698
0.00723866
0.00426286
0.00417181
0.00519908
0.00862736
0.00725931
0.0042869
0.00418548
0.00531174
0.00968836
0.00729334
0.00438133
0.00421004
0.00540269
0.0106678
0.00736754
0.00478923
0.00425024
0.00547775
0.0114857
0.00745443
0.0193601
0.00503966
0.00561632
0.0122779
0.00757543
0.0581003
0.0100484
0.00591537
0.0127927
0.00770515
0.0815427
0.0237755
0.0069121
0.0129557
0.00784243
0.0973423
0.037616
0.00933047
0.0131101
0.00795459
0.110009
0.0509629
0.0154757
0.0135622
0.0080468
0.12011
0.0626532
0.0243403
0.0148256
0.00818765
0.128126
0.0722279
0.0329848
0.0177208
0.00846114
0.134363
0.080511
0.0411259
0.0229171
0.00912386
0.13929
0.0874462
0.0492844
0.0286534
0.010478
0.143561
0.0935618
0.056893
0.0348167
0.0126123
0.147354
0.0986626
0.063537
0.0394307
0.0150687
0.150803
0.102539
0.0679034
0.0432299
0.0174966
0.153889
0.105677
0.0707942
0.0458635
0.0194674
0.156485
0.108062
0.0725964
0.0476177
0.0210869
0.158694
0.110019
0.0742355
0.0488883
0.0223665
0.160695
0.111722
0.075385
0.0497473
0.0231778
0.162533
0.113394
0.0764661
0.0504169
0.0239843
0.164106
0.114888
0.0774644
0.0511723
0.0244272
0.165606
0.116398
0.0787499
0.0512894
0.0249158
0.167014
0.117781
0.0792064
0.0515274
0.0252537
0.167887
0.118675
0.0792158
0.0512353
0.0250892
0.168875
0.119854
0.0805333
0.0522604
0.0257533
0.168972
0.119803
0.080603
0.05286
0.0259967
0.170273
0.121552
0.0819621
0.053201
0.025978
0.170982
0.122602
0.0833715
0.0542489
0.0265983
0.170983
0.122598
0.0833167
0.0547587
0.0271551
0.171949
0.123749
0.0846001
0.0551935
0.0273638
0.172502
0.124755
0.0867546
0.0573459
0.0282838
0.172469
0.124714
0.0869004
0.0575132
0.0290625
0.173331
0.125984
0.0884739
0.0587744
0.0296173
0.173629
0.127066
0.0904123
0.0610775
0.0308083
0.17366
0.127098
0.0905099
0.0614773
0.0314609
0.174212
0.128158
0.091948
0.0628986
0.0324114
0.174242
0.128426
0.0925994
0.063765
0.0329427
0.174165
0.128325
0.0925113
0.0638123
0.0332007
0.174535
0.128947
0.0935819
0.0649562
0.0339523
0.174487
0.128989
0.0938671
0.065585
0.0347608
0.174287
0.128895
0.0938747
0.0657137
0.0351966
0.174537
0.129162
0.0943975
0.0664622
0.0355547
0.174535
0.129182
0.0946845
0.0666843
0.0359599
0.174164
0.128847
0.0943457
0.0665208
0.0358282
)
;
    }
    side2
    {
        type            cyclicAMI;
        value           nonuniform List<scalar> 
250
(
0.00389122
0.0040985
0.00468224
0.00559057
0.00684824
0.00403994
0.00409947
0.00471604
0.00576851
0.00701105
0.00414661
0.00410875
0.00479961
0.00614407
0.00712809
0.00421856
0.00413033
0.00494574
0.00681253
0.00720117
0.00426005
0.00415587
0.00508756
0.00760698
0.00723866
0.00426286
0.00417181
0.00519909
0.00862736
0.00725931
0.0042869
0.00418548
0.00531175
0.00968836
0.00729333
0.00438133
0.00421004
0.0054027
0.0106678
0.00736754
0.00478923
0.00425024
0.00547775
0.0114857
0.00745442
0.0193601
0.00503966
0.00561632
0.0122779
0.00757543
0.0581003
0.0100484
0.00591538
0.0127927
0.00770514
0.0815427
0.0237755
0.00691209
0.0129557
0.00784243
0.0973423
0.037616
0.00933046
0.0131101
0.00795458
0.110009
0.0509629
0.0154757
0.0135622
0.00804679
0.12011
0.0626531
0.0243403
0.0148256
0.00818764
0.128126
0.0722279
0.0329848
0.0177208
0.00846113
0.134363
0.080511
0.0411259
0.0229171
0.00912385
0.13929
0.0874461
0.0492843
0.0286534
0.0104779
0.143561
0.0935618
0.056893
0.0348166
0.0126123
0.147354
0.0986626
0.063537
0.0394307
0.0150687
0.150803
0.102539
0.0679034
0.0432299
0.0174966
0.153889
0.105677
0.0707942
0.0458635
0.0194674
0.156485
0.108062
0.0725964
0.0476177
0.0210869
0.158694
0.110019
0.0742354
0.0488882
0.0223665
0.160695
0.111722
0.075385
0.0497472
0.0231778
0.162533
0.113394
0.0764661
0.0504169
0.0239842
0.164106
0.114888
0.0774643
0.0511722
0.0244272
0.165606
0.116398
0.0787499
0.0512893
0.0249158
0.167014
0.117781
0.0792064
0.0515273
0.0252537
0.167887
0.118675
0.0792158
0.0512352
0.0250892
0.168875
0.119854
0.0805333
0.0522603
0.0257532
0.168972
0.119803
0.0806029
0.0528599
0.0259966
0.170273
0.121552
0.0819621
0.0532009
0.025978
0.170982
0.122602
0.0833714
0.0542489
0.0265983
0.170983
0.122598
0.0833167
0.0547586
0.0271551
0.171949
0.123749
0.0846
0.0551935
0.0273637
0.172502
0.124755
0.0867545
0.0573458
0.0282838
0.172469
0.124714
0.0869003
0.0575131
0.0290624
0.173331
0.125984
0.0884738
0.0587744
0.0296172
0.173629
0.127066
0.0904123
0.0610775
0.0308083
0.17366
0.127098
0.0905099
0.0614773
0.0314608
0.174212
0.128158
0.091948
0.0628985
0.0324114
0.174242
0.128426
0.0925994
0.063765
0.0329427
0.174165
0.128325
0.0925112
0.0638122
0.0332006
0.174535
0.128947
0.0935818
0.0649561
0.0339523
0.174487
0.128989
0.0938671
0.0655849
0.0347608
0.174287
0.128895
0.0938747
0.0657137
0.0351966
0.174537
0.129162
0.0943975
0.0664622
0.0355546
0.174535
0.129182
0.0946844
0.0666843
0.0359599
0.174164
0.128847
0.0943456
0.0665207
0.0358282
)
;
    }
    walls
    {
        type            kqRWallFunction;
        value           nonuniform List<scalar> 
250
(
0.00684818
0.00684829
0.00684813
0.00684815
0.00684831
0.00701108
0.00701116
0.00701111
0.007011
0.00701102
0.00712798
0.00712804
0.00712819
0.00712822
0.00712821
0.00720128
0.00720086
0.00720084
0.00720094
0.00720105
0.00723862
0.00723866
0.00723854
0.00723871
0.0072387
0.00725941
0.00725951
0.00725897
0.00725898
0.00725921
0.00729338
0.00729378
0.00729378
0.0072934
0.00729328
0.00736709
0.0073663
0.00736804
0.00736713
0.00736798
0.00745519
0.00745267
0.00745449
0.00745344
0.00745366
0.00757609
0.00757533
0.00757549
0.00757513
0.00757477
0.00770514
0.00770484
0.00770513
0.00770531
0.00770514
0.00784267
0.00784354
0.00784165
0.00784289
0.00784219
0.00795636
0.00795079
0.00795515
0.00795103
0.00795281
0.00804699
0.00804564
0.00804639
0.00804585
0.0080466
0.00818435
0.00818804
0.00818351
0.00817618
0.00819093
0.00848267
0.00849183
0.00847481
0.00848697
0.00843958
0.00907299
0.00915695
0.00908959
0.00914128
0.0091747
0.0105339
0.0103946
0.0104635
0.0103538
0.010422
0.0125629
0.0126609
0.0127406
0.0125486
0.0126617
0.0149819
0.0150928
0.0152509
0.0150257
0.0151555
0.0173849
0.0175076
0.0173696
0.0174511
0.0176083
0.0195282
0.0196353
0.0194512
0.0195704
0.0194066
0.0210029
0.0211486
0.0209605
0.0210887
0.0211709
0.0224032
0.022285
0.0223648
0.0222064
0.0223298
0.023231
0.0231019
0.0231842
0.0232575
0.0231245
0.0240322
0.0238767
0.0239513
0.0238665
0.0239363
0.0244076
0.0243519
0.0244559
0.0243641
0.0244468
0.024851
0.0249185
0.0249867
0.0248434
0.0249806
0.0252752
0.0249711
0.0250092
0.025238
0.0252322
0.0251128
0.0250114
0.0250862
0.0249173
0.0250656
0.0257967
0.025758
0.0257182
0.0257161
0.0257098
0.0258196
0.0258542
0.0257804
0.0258581
0.0261737
0.0259709
0.0260355
0.0259377
0.0259418
0.0259851
0.0266237
0.0266223
0.0264611
0.0266233
0.0265729
0.0270144
0.0273907
0.0275478
0.027103
0.0272958
0.0273122
0.0273966
0.0273491
0.0273932
0.0274153
0.0282617
0.0283483
0.0282938
0.0282499
0.0283059
0.0290828
0.0290406
0.0291619
0.0291023
0.029042
0.0296584
0.0295632
0.0296899
0.0295711
0.0295761
0.0308873
0.0308681
0.0307629
0.03092
0.0307293
0.0314754
0.0315598
0.0314459
0.0313576
0.0314463
0.0324991
0.0324812
0.0324182
0.0323288
0.0323237
0.0328879
0.0331079
0.0331956
0.0329928
0.0329974
0.0331367
0.0333056
0.0332626
0.0333214
0.0332646
0.0339028
0.0340095
0.0339871
0.0339885
0.0340017
0.0347156
0.0348052
0.0348218
0.0348233
0.034806
0.0352778
0.035272
0.0352227
0.0352453
0.0351153
0.0355838
0.0355464
0.0356815
0.0357817
0.0355254
0.0359673
0.0359123
0.0357163
0.035774
0.0359524
0.0358292
0.0357826
0.0358077
0.035864
0.0358272
)
;
    }
}


// ************************************************************************* //
