/*--------------------------------*- C++ -*----------------------------------*\
| =========                 |                                                 |
| \\      /  F ield         | OpenFOAM: The Open Source CFD Toolbox           |
|  \\    /   O peration     | Version:  v2006                                 |
|   \\  /    A nd           | Website:  www.openfoam.com                      |
|    \\/     M anipulation  |                                                 |
\*---------------------------------------------------------------------------*/
FoamFile
{
    version     2.0;
    format      ascii;
    class       volScalarField;
    location    "100";
    object      nut;
}
// * * * * * * * * * * * * * * * * * * * * * * * * * * * * * * * * * * * * * //

dimensions      [0 2 -1 0 0 0 0];


internalField   nonuniform List<scalar> 
1250
(
0.000618259
0.000651131
0.000685431
0.000708292
0.000708215
0.000681664
0.000662268
0.000668809
0.000717283
0.00286617
0.00824625
0.0113715
0.0134181
0.0152691
0.0170887
0.0189054
0.0206214
0.0221256
0.0234481
0.0246012
0.0257101
0.026822
0.0279277
0.0290345
0.0301799
0.0313765
0.0326122
0.0339483
0.0353796
0.0368376
0.0384961
0.0401386
0.042486
0.044893
0.0472259
0.0500636
0.0510419
0.0500417
0.050319
0.0517117
0.0537772
0.0562019
0.0581953
0.0599418
0.0614498
0.0626795
0.0636263
0.0645205
0.0652709
0.0656384
0.000618246
0.000651163
0.000685534
0.000708382
0.000708074
0.000681208
0.000663002
0.000668515
0.000720464
0.00291792
0.00822475
0.0113433
0.0133938
0.0152485
0.0170713
0.0189028
0.0206415
0.0221639
0.0234931
0.0246413
0.0257586
0.0268829
0.0279944
0.029111
0.0302652
0.0314728
0.0327257
0.0340821
0.0355464
0.0370484
0.0387818
0.0405408
0.0431147
0.0460007
0.0491383
0.0499275
0.0486354
0.0484804
0.0500792
0.0521991
0.0543616
0.0566392
0.0584513
0.060074
0.0615076
0.0626883
0.0636145
0.0644926
0.0652371
0.0655919
0.000618227
0.000651026
0.000685634
0.000708455
0.000707851
0.000681198
0.000663291
0.000667232
0.00072722
0.00297792
0.00820599
0.0113143
0.0133707
0.0152356
0.0170608
0.0189162
0.0206756
0.0222061
0.0235378
0.0246939
0.0258299
0.0269605
0.0280802
0.0292095
0.0303771
0.0316018
0.0328797
0.0342644
0.0357691
0.0373262
0.0391413
0.0409966
0.043689
0.0462307
0.0460145
0.0449729
0.0456167
0.0474552
0.050143
0.0526406
0.0548352
0.0570391
0.0587575
0.0603057
0.0616787
0.0628124
0.063704
0.0645539
0.0652774
0.0656089
0.000618218
0.000651147
0.000685424
0.000708246
0.000708219
0.000681281
0.0006635
0.000667529
0.000724375
0.00294611
0.0081983
0.0113103
0.0133668
0.0152329
0.0170564
0.0189034
0.0206452
0.0221528
0.0234711
0.0246251
0.0257499
0.0268685
0.0279789
0.0290958
0.0302488
0.0314554
0.0327094
0.0340612
0.0355182
0.0370063
0.0387102
0.0403834
0.0427711
0.0450837
0.0462917
0.0463363
0.0463964
0.0473879
0.0496509
0.052143
0.054496
0.0568358
0.0586486
0.0602471
0.0616472
0.0627975
0.0636978
0.0645539
0.0652816
0.0656165
0.000618236
0.000651016
0.000685702
0.000708394
0.000707858
0.00068149
0.000663469
0.000667606
0.000729621
0.00288729
0.00822266
0.0113469
0.0134033
0.0152635
0.0170874
0.0189112
0.0206311
0.0221304
0.0234477
0.0246033
0.0257176
0.0268238
0.0279271
0.0290327
0.0301753
0.0313691
0.0326039
0.0339358
0.035364
0.0368169
0.0384705
0.0400971
0.042426
0.0448049
0.046951
0.0490026
0.0494889
0.0491019
0.0499063
0.0516254
0.0538596
0.0563368
0.0583395
0.0600671
0.061552
0.0627587
0.0636881
0.0645676
0.0653065
0.0656601
0.000660414
0.000627449
0.000627724
0.000647391
0.000654868
0.000659787
0.000651403
0.000650823
0.000670783
0.00075651
0.00132638
0.00300522
0.00456906
0.00636628
0.00792873
0.00920735
0.0106233
0.0126185
0.0154578
0.018826
0.0218823
0.022097
0.0216375
0.0213786
0.0213386
0.0215648
0.0219605
0.0225508
0.0232359
0.0239347
0.0248214
0.0254738
0.026804
0.0280715
0.0291621
0.0308366
0.0325188
0.0341484
0.0361415
0.0380823
0.039636
0.0417291
0.0433283
0.0449462
0.0465555
0.0478308
0.0490938
0.0500961
0.0511478
0.0517888
0.000660655
0.000627214
0.000627924
0.000647421
0.000654653
0.000659396
0.000652264
0.00065251
0.000668404
0.000769838
0.00138031
0.00303184
0.00463247
0.00635849
0.00789548
0.00922559
0.0106813
0.0126851
0.0155696
0.0190787
0.0225964
0.0220436
0.0214455
0.0211894
0.0211849
0.0214526
0.0218895
0.0225098
0.0232374
0.0239519
0.0248586
0.0255255
0.02688
0.0281372
0.0291987
0.0308564
0.0325779
0.0342133
0.0362189
0.0381505
0.0396944
0.041788
0.0433822
0.0449916
0.0465966
0.0478622
0.0491113
0.0501052
0.05114
0.0517777
0.000660439
0.000627295
0.000627865
0.000647477
0.000654574
0.000659311
0.000651902
0.000651626
0.000669276
0.000757356
0.00132798
0.0029399
0.00456892
0.00640766
0.0079276
0.00930772
0.0107694
0.0128366
0.015825
0.0194237
0.0220575
0.021502
0.0210912
0.0209653
0.0210568
0.0213934
0.0218987
0.0225489
0.0232943
0.0240338
0.0249461
0.0256094
0.0269603
0.0281984
0.0292537
0.0309448
0.032709
0.0343558
0.0363648
0.0382891
0.0398232
0.0419144
0.0434928
0.045089
0.0466826
0.0479553
0.0491419
0.0501337
0.0511648
0.0517719
0.000660383
0.000627378
0.000627825
0.000647337
0.000654704
0.000659233
0.000653195
0.000651555
0.000668306
0.000766143
0.0013594
0.00297929
0.00458507
0.00643495
0.00797171
0.0093162
0.0107507
0.0127853
0.0157333
0.0192034
0.0218382
0.0216022
0.0212314
0.0210844
0.0211492
0.021459
0.021945
0.0225785
0.0232902
0.0240292
0.0249266
0.0255709
0.0268968
0.0281413
0.0292283
0.030933
0.0326652
0.0343061
0.0363
0.0382277
0.0397667
0.0418602
0.0434438
0.0450431
0.0466392
0.0479123
0.0491049
0.0500984
0.0511484
0.0517428
0.000660382
0.000627225
0.000627963
0.000647602
0.000654362
0.000659193
0.000652672
0.00065042
0.000668953
0.000781853
0.00142559
0.00293861
0.00461853
0.00641706
0.00798212
0.00926939
0.0106728
0.0126782
0.0155692
0.0189282
0.0216225
0.0217305
0.0214062
0.0212279
0.0212457
0.0215112
0.0219384
0.022546
0.0232331
0.0239544
0.0248356
0.0254833
0.0267951
0.0280553
0.0291496
0.0308588
0.0325202
0.0342042
0.0361716
0.038111
0.0396663
0.0417574
0.0433549
0.0449695
0.0465753
0.0478396
0.0490897
0.0500894
0.0511414
0.0517614
0.000921575
0.00113586
0.000936903
0.000880168
0.000826052
0.000783082
0.000766984
0.000765327
0.000765763
0.000774767
0.000833315
0.000986819
0.00134319
0.00225959
0.00370883
0.00518475
0.00666685
0.00809783
0.00952002
0.010833
0.0118074
0.0126196
0.0132138
0.0137854
0.0142672
0.0147547
0.015212
0.015799
0.0162667
0.0166638
0.0174705
0.0178725
0.0187329
0.0196114
0.0200274
0.0211162
0.0224286
0.0232968
0.0247419
0.0263489
0.027309
0.0289795
0.0302152
0.0314829
0.0330431
0.0340843
0.0352398
0.0362157
0.0373072
0.0379911
0.000922026
0.00113458
0.000937766
0.000880806
0.000825271
0.000783485
0.000767249
0.000765524
0.000766203
0.000772939
0.000831966
0.00100167
0.00138037
0.0023546
0.00377688
0.00524794
0.00675168
0.0080813
0.0095159
0.0108152
0.011863
0.0126703
0.0132584
0.0138187
0.0143097
0.0148022
0.0152699
0.015846
0.0163654
0.0167718
0.0175546
0.0179253
0.0188039
0.0196247
0.020119
0.0211702
0.0225356
0.0234248
0.0248582
0.0264466
0.0274143
0.029093
0.0303344
0.0315923
0.0331245
0.0340699
0.0353013
0.0362873
0.0371917
0.0380235
0.000920812
0.00113567
0.000936817
0.000880446
0.000826234
0.000783093
0.000766847
0.000765594
0.000766186
0.000773108
0.000825069
0.000980216
0.00134009
0.00225274
0.0036987
0.00518234
0.00663959
0.00813123
0.00952027
0.0108262
0.0118865
0.0126752
0.0132634
0.0138277
0.0143374
0.0148376
0.0153585
0.0159304
0.0164793
0.016918
0.0175781
0.0180252
0.0188793
0.0196955
0.020182
0.0212396
0.0226529
0.0235889
0.0250132
0.0265681
0.0275299
0.0292123
0.0303987
0.0316518
0.0331959
0.0341147
0.0353435
0.0362993
0.0372883
0.03798
0.000922347
0.00113499
0.00093747
0.000880428
0.000825429
0.000783793
0.000766852
0.00076561
0.000766526
0.000775091
0.000832193
0.000993032
0.00135172
0.00231866
0.00374899
0.00522905
0.00670158
0.00805093
0.00954714
0.0108953
0.0118956
0.0126593
0.0132654
0.0138198
0.0143192
0.014817
0.0153657
0.0159568
0.0164288
0.0169069
0.0176402
0.0180208
0.0188525
0.0196827
0.0201618
0.021224
0.022612
0.0235604
0.0249752
0.0265362
0.0274738
0.0291441
0.0303462
0.0315948
0.0331377
0.0340553
0.0352909
0.0361856
0.0373826
0.0379056
0.000920741
0.00113503
0.000937271
0.000880705
0.000826056
0.000783177
0.00076688
0.000765329
0.000765836
0.000773601
0.000825117
0.000998635
0.00139087
0.00237289
0.00381306
0.00528985
0.00664516
0.00811988
0.00952029
0.0108242
0.011852
0.0126186
0.0132258
0.0138046
0.0142907
0.0147836
0.0152896
0.0158864
0.0163484
0.0167774
0.0174603
0.0179786
0.0187779
0.0196589
0.0200849
0.0211579
0.0224794
0.0233708
0.0248017
0.026402
0.0273366
0.0289937
0.0302222
0.0314863
0.0330389
0.0339904
0.0352365
0.0361813
0.037327
0.0379375
0.000794427
0.000844407
0.00092062
0.00104524
0.00119791
0.00139296
0.00161943
0.00186055
0.00209485
0.00232705
0.00248965
0.00256079
0.00259278
0.00266543
0.00289337
0.00344966
0.00446905
0.00555845
0.00662416
0.00746035
0.00816748
0.00869096
0.00902653
0.00933114
0.00960755
0.00985002
0.0101274
0.0102617
0.0103922
0.0105441
0.0109491
0.0114249
0.0118778
0.0124625
0.0128315
0.0134872
0.0144292
0.0145074
0.0150804
0.0160062
0.016502
0.0173694
0.0180184
0.0186813
0.0196397
0.0201603
0.0208224
0.0213196
0.0216881
0.022042
0.000794439
0.000844513
0.000921034
0.00104519
0.00119874
0.00139554
0.00162027
0.00185964
0.00209433
0.00232708
0.00249091
0.00255892
0.00259333
0.00267164
0.00286078
0.00348088
0.00451789
0.00559594
0.00672296
0.00756199
0.00823667
0.00870441
0.00901164
0.00930709
0.00954987
0.00980429
0.010139
0.010232
0.0103711
0.0105684
0.0109697
0.0113969
0.0118686
0.0124399
0.0127575
0.0134489
0.0144828
0.0145267
0.0151265
0.0160184
0.0165981
0.0174838
0.0180528
0.0187126
0.0196781
0.02026
0.0206337
0.021198
0.0217675
0.0220008
0.00079442
0.000844552
0.000921289
0.00104498
0.0011985
0.00139305
0.00161937
0.0018599
0.00209535
0.00232743
0.00249385
0.00255158
0.00259105
0.00265478
0.00290346
0.00340672
0.00440935
0.00553643
0.00661502
0.00748263
0.00815191
0.00867182
0.0090306
0.0093243
0.00960574
0.00983271
0.0101358
0.0103323
0.0104838
0.0105788
0.0110481
0.0112734
0.0117799
0.0124349
0.0128033
0.0134816
0.0145212
0.0146078
0.0152268
0.0160547
0.0166594
0.0175841
0.0179914
0.0187978
0.0197409
0.0202652
0.0207331
0.0212448
0.0218689
0.0219872
0.000794504
0.000844349
0.00092081
0.00104465
0.00119852
0.0013945
0.00162009
0.00185858
0.00209479
0.00232825
0.00249268
0.00255659
0.00258903
0.00266472
0.0028429
0.00347081
0.00450192
0.00559502
0.00665699
0.00752671
0.00823401
0.00870021
0.00907937
0.00937401
0.00962093
0.00985765
0.0101193
0.0103314
0.0105486
0.0105854
0.0110848
0.0115377
0.0117616
0.0124441
0.0129214
0.0135547
0.0145727
0.0146796
0.0152854
0.0161497
0.0164778
0.0174718
0.0180861
0.0188068
0.0197433
0.0202477
0.0207245
0.0211402
0.0217392
0.0220093
0.000794401
0.000844581
0.000921278
0.00104514
0.00119816
0.00139636
0.00162045
0.00186049
0.00209519
0.00232635
0.00249295
0.0025498
0.00258659
0.00265473
0.00287496
0.00338802
0.0043854
0.00549901
0.00674363
0.00751287
0.00815688
0.00862873
0.00900704
0.00931949
0.00956775
0.00983195
0.010165
0.0103344
0.0105458
0.0106006
0.0110402
0.0115436
0.0118549
0.0124733
0.0129112
0.0135474
0.0144777
0.0145691
0.0151446
0.016078
0.0163348
0.0172753
0.0179645
0.0186952
0.0196374
0.020161
0.0206343
0.0212625
0.0218953
0.0219857
0.000208074
0.000219811
0.000228067
0.00023312
0.000235678
0.000236677
0.000237727
0.00024003
0.000242897
0.000247229
0.00025185
0.000256925
0.000261302
0.000264845
0.000269694
0.000279741
0.000297576
0.000343935
0.000405812
0.000480887
0.000556091
0.000626628
0.000672743
0.00072064
0.000749868
0.000777731
0.000791742
0.000807972
0.000827168
0.000823926
0.000847817
0.000848845
0.000859423
0.000881611
0.000892675
0.00090919
0.000940947
0.000969085
0.000987894
0.00102712
0.00104509
0.00107923
0.00108714
0.00109945
0.00112246
0.00114752
0.00116562
0.00117677
0.00118996
0.00118315
0.000208078
0.000219812
0.000228071
0.000233111
0.000235675
0.000236677
0.000237739
0.000240018
0.000242822
0.000247201
0.000251837
0.000256961
0.000261139
0.000264806
0.000269903
0.000279842
0.000301291
0.00033828
0.000410165
0.00048628
0.000562283
0.000629837
0.000679556
0.000715749
0.000744191
0.000771176
0.000790045
0.00081218
0.000811891
0.000818927
0.000846169
0.000853167
0.000862491
0.00088294
0.000909084
0.000911875
0.000943425
0.000966101
0.000983167
0.00102577
0.00104945
0.00107701
0.00109998
0.00110603
0.0011272
0.00115127
0.00116566
0.00117564
0.00118849
0.00118182
0.000208074
0.000219813
0.000228068
0.000233112
0.000235683
0.000236661
0.00023773
0.000240065
0.000242886
0.000247213
0.000251845
0.000256892
0.000261266
0.000264832
0.000269702
0.000279186
0.000298343
0.000341722
0.000412488
0.00049138
0.000556355
0.000622241
0.000671424
0.000719698
0.000748342
0.000775265
0.000794412
0.000814363
0.000814024
0.000822812
0.00084385
0.000847238
0.000857705
0.000875299
0.000914312
0.000908318
0.000939808
0.000971197
0.000989387
0.00102163
0.00104464
0.00107537
0.00110129
0.00110293
0.00112549
0.00115068
0.00116465
0.00117981
0.00117746
0.00118268
0.000208074
0.000219813
0.000228072
0.000233104
0.000235683
0.000236672
0.000237722
0.000240033
0.000242851
0.000247203
0.000251858
0.000256944
0.000261143
0.000264825
0.000269486
0.000279739
0.000300712
0.000337268
0.000404958
0.000482077
0.000560398
0.000628089
0.000677714
0.000713172
0.000750515
0.0007714
0.000790157
0.000807838
0.000824649
0.000815457
0.000845548
0.000848197
0.000857665
0.000882872
0.000895267
0.000911169
0.000939612
0.000968097
0.000983959
0.0010286
0.00104391
0.00107439
0.00109736
0.00110778
0.00112679
0.00115178
0.00116455
0.00118229
0.00117862
0.00118441
0.000208075
0.000219813
0.000228078
0.000233112
0.000235678
0.000236672
0.000237725
0.000240056
0.000242853
0.00024719
0.000251848
0.000256909
0.000261183
0.000264816
0.000270037
0.000277931
0.000301588
0.000340465
0.000410314
0.000488299
0.00056557
0.000621034
0.000679773
0.000718984
0.000744878
0.000774718
0.000794283
0.000813828
0.000826585
0.000822963
0.000845071
0.000864941
0.000859794
0.000879822
0.000908102
0.000912962
0.000942172
0.000967056
0.000985947
0.00102084
0.00104551
0.00107241
0.00109703
0.00110542
0.00112723
0.0011508
0.00116205
0.00117547
0.00118922
0.00118312
)
;

boundaryField
{
    inlet
    {
        type            calculated;
        value           nonuniform List<scalar> 
25
(
0.000604406
0.000604401
0.000604366
0.000604378
0.000604391
0.00062511
0.00062526
0.000625102
0.000625109
0.000625131
0.000983779
0.000984784
0.000983954
0.000984408
0.000984093
0.000795885
0.000795855
0.00079593
0.000795869
0.000795887
0.000221826
0.000221825
0.000221829
0.000221826
0.000221823
)
;
    }
    outlet
    {
        type            calculated;
        value           nonuniform List<scalar> 
25
(
0.0656729
0.0656134
0.0656231
0.0656328
0.0656886
0.0519464
0.0519238
0.051905
0.0518762
0.0519086
0.0381598
0.0381949
0.0381464
0.0380655
0.0380978
0.0220943
0.0220523
0.0220384
0.0220613
0.022039
0.00118311
0.00118178
0.00118264
0.00118438
0.00118308
)
;
    }
    side1
    {
        type            cyclicAMI;
        value           nonuniform List<scalar> 
250
(
0.000618247
0.000660398
0.000921158
0.000794414
0.000208075
0.000651073
0.000627337
0.00113544
0.000844494
0.000219813
0.000685567
0.000627843
0.000937087
0.000920949
0.000228073
0.000708343
0.000647496
0.000880436
0.00104519
0.000233117
0.000708037
0.000654615
0.000826054
0.00119804
0.000235679
0.000681577
0.00065949
0.000783129
0.00139466
0.000236676
0.000662868
0.000652038
0.000766932
0.00161994
0.000237728
0.000668207
0.000650621
0.000765328
0.00186052
0.000240045
0.000723452
0.000669868
0.000765799
0.00209502
0.000242877
0.00287673
0.000769181
0.000774184
0.0023267
0.000247212
0.00823445
0.00137598
0.000829216
0.0024913
0.000251851
0.0113592
0.00297191
0.000992728
0.00255529
0.00025692
0.0134107
0.0045938
0.00136703
0.00258968
0.000261245
0.0152663
0.00639167
0.00231624
0.00266008
0.000264833
0.017088
0.00795543
0.00376095
0.00288417
0.000269868
0.0189083
0.00923837
0.0052373
0.00341884
0.00027884
0.0206263
0.010648
0.00665601
0.00442723
0.000299587
0.022128
0.0126484
0.00810886
0.00552873
0.000342206
0.0234479
0.0155135
0.00952016
0.0066839
0.00040807
0.0246022
0.0188771
0.0108286
0.00748662
0.0004846
0.0257138
0.0217524
0.0118297
0.00816218
0.000560839
0.0268229
0.0219137
0.0126191
0.00865985
0.00062384
0.0279274
0.0215218
0.0132198
0.00901679
0.000676267
0.0290336
0.0213032
0.013795
0.00932532
0.000719822
0.0301776
0.0212921
0.0142789
0.00958766
0.000747383
0.0313728
0.021538
0.0147692
0.00984099
0.000776235
0.032608
0.0219495
0.0152508
0.0101462
0.000793023
0.0339421
0.0225484
0.0158427
0.0102981
0.000810911
0.0353718
0.0232345
0.0163076
0.010469
0.000826887
0.0368272
0.0239446
0.0167206
0.0105723
0.000823455
0.0384833
0.0248285
0.0174654
0.0109947
0.000846455
0.0401179
0.0254785
0.0179255
0.0114843
0.000856905
0.042456
0.0267995
0.0187554
0.0118664
0.000859621
0.044849
0.0280634
0.0196352
0.0124679
0.000880729
0.0470884
0.0291558
0.0200562
0.0128714
0.000900402
0.0495331
0.0308477
0.0211371
0.0135173
0.00091109
0.0502654
0.0325195
0.022454
0.0144534
0.000941575
0.0495718
0.0341763
0.0233338
0.0145383
0.000968086
0.0501126
0.0361566
0.0247718
0.0151125
0.000986936
0.0516685
0.0380966
0.0263755
0.0160421
0.00102399
0.0538184
0.0396511
0.0273228
0.0164184
0.00104532
0.0562694
0.0417433
0.0289866
0.0173224
0.00107584
0.0582674
0.0433416
0.0302187
0.0179915
0.00109211
0.0600044
0.0449579
0.0314846
0.0186882
0.00110246
0.0615009
0.0465654
0.033041
0.0196386
0.00112486
0.0627191
0.0478352
0.0340374
0.0201607
0.00114918
0.0636572
0.0490917
0.0352381
0.0207284
0.00116386
0.064544
0.0500928
0.0361985
0.0212911
0.00117614
0.0652887
0.0511446
0.0373171
0.0217917
0.00118962
0.0656492
0.0517751
0.0379643
0.0220139
0.00118316
)
;
    }
    side2
    {
        type            cyclicAMI;
        value           nonuniform List<scalar> 
250
(
0.000618247
0.000660398
0.000921158
0.000794413
0.000208075
0.000651073
0.000627337
0.00113544
0.000844493
0.000219812
0.000685567
0.000627843
0.000937087
0.000920948
0.000228073
0.000708343
0.000647496
0.000880437
0.00104519
0.000233116
0.000708037
0.000654615
0.000826055
0.00119804
0.000235678
0.000681577
0.00065949
0.00078313
0.00139466
0.000236675
0.000662868
0.000652038
0.000766933
0.00161994
0.000237726
0.000668207
0.000650621
0.000765329
0.00186052
0.000240043
0.000723452
0.000669868
0.0007658
0.00209502
0.000242875
0.00287673
0.000769181
0.000774185
0.0023267
0.00024721
0.00823445
0.00137598
0.000829218
0.0024913
0.000251849
0.0113592
0.00297191
0.000992728
0.00255529
0.000256917
0.0134107
0.00459379
0.00136703
0.00258968
0.000261242
0.0152663
0.00639167
0.00231624
0.00266008
0.000264831
0.017088
0.00795543
0.00376094
0.00288416
0.000269866
0.0189083
0.00923837
0.0052373
0.00341884
0.000278836
0.0206263
0.010648
0.006656
0.00442722
0.000299582
0.022128
0.0126483
0.00810886
0.00552873
0.0003422
0.0234479
0.0155135
0.00952015
0.00668389
0.000408063
0.0246022
0.0188771
0.0108286
0.00748661
0.000484593
0.0257138
0.0217524
0.0118297
0.00816217
0.000560831
0.0268229
0.0219137
0.0126191
0.00865984
0.000623831
0.0279274
0.0215218
0.0132198
0.00901677
0.000676258
0.0290336
0.0213032
0.013795
0.00932531
0.000719812
0.0301776
0.0212921
0.0142789
0.00958764
0.000747373
0.0313728
0.021538
0.0147691
0.00984097
0.000776225
0.032608
0.0219494
0.0152508
0.0101462
0.000793012
0.0339421
0.0225484
0.0158427
0.0102981
0.0008109
0.0353718
0.0232345
0.0163076
0.010469
0.000826877
0.0368272
0.0239446
0.0167206
0.0105723
0.000823444
0.0384833
0.0248285
0.0174654
0.0109947
0.000846444
0.0401179
0.0254785
0.0179255
0.0114843
0.000856893
0.042456
0.0267995
0.0187554
0.0118663
0.000859609
0.044849
0.0280634
0.0196351
0.0124679
0.000880717
0.0470884
0.0291558
0.0200562
0.0128713
0.000900388
0.0495331
0.0308477
0.0211371
0.0135173
0.000911076
0.0502654
0.0325195
0.022454
0.0144534
0.00094156
0.0495718
0.0341763
0.0233338
0.0145383
0.000968071
0.0501126
0.0361566
0.0247718
0.0151125
0.00098692
0.0516685
0.0380966
0.0263754
0.0160421
0.00102398
0.0538184
0.0396511
0.0273228
0.0164184
0.0010453
0.0562694
0.0417432
0.0289866
0.0173223
0.00107582
0.0582674
0.0433416
0.0302187
0.0179914
0.00109209
0.0600044
0.0449578
0.0314846
0.0186882
0.00110244
0.0615009
0.0465654
0.033041
0.0196385
0.00112484
0.0627191
0.0478352
0.0340374
0.0201606
0.00114916
0.0636572
0.0490917
0.0352381
0.0207283
0.00116384
0.064544
0.0500927
0.0361985
0.021291
0.00117612
0.0652887
0.0511446
0.0373171
0.0217917
0.00118959
0.0656492
0.0517751
0.0379643
0.0220139
0.00118313
)
;
    }
    walls
    {
        type            nutkWallFunction;
        blending        stepwise;
        Cmu             0.09;
        kappa           0.41;
        E               9.8;
        value           nonuniform List<scalar> 
250
(
8.77467e-05
8.77474e-05
8.77465e-05
8.77466e-05
8.77475e-05
8.86902e-05
8.86906e-05
8.86904e-05
8.86897e-05
8.86898e-05
8.93599e-05
8.93603e-05
8.93611e-05
8.93613e-05
8.93612e-05
8.97768e-05
8.97744e-05
8.97743e-05
8.97749e-05
8.97755e-05
8.99882e-05
8.99885e-05
8.99878e-05
8.99888e-05
8.99887e-05
9.01057e-05
9.01063e-05
9.01032e-05
9.01034e-05
9.01046e-05
9.02973e-05
9.02996e-05
9.02996e-05
9.02974e-05
9.02968e-05
9.07113e-05
9.07069e-05
9.07167e-05
9.07116e-05
9.07164e-05
9.12032e-05
9.11892e-05
9.11994e-05
9.11935e-05
9.11947e-05
9.18731e-05
9.1869e-05
9.18699e-05
9.18679e-05
9.18659e-05
9.25819e-05
9.25802e-05
9.25818e-05
9.25828e-05
9.25819e-05
9.333e-05
9.33348e-05
9.33245e-05
9.33312e-05
9.33275e-05
9.39431e-05
9.39132e-05
9.39367e-05
9.39146e-05
9.39241e-05
9.44285e-05
9.44213e-05
9.44253e-05
9.44224e-05
9.44264e-05
9.51585e-05
9.5178e-05
9.51541e-05
9.51153e-05
9.51933e-05
9.67212e-05
9.67687e-05
9.66804e-05
9.67435e-05
9.64973e-05
9.97276e-05
0.000100146
9.98106e-05
0.000100068
0.000100235
0.000106738
0.000106093
0.000106413
0.000105904
0.000106221
0.000115648
0.000116058
0.000116389
0.000115588
0.000116061
0.0001253
0.000125722
0.000126319
0.000125467
0.000125959
0.000134082
0.000134512
0.000134028
0.000134314
0.000134864
0.000141373
0.000141725
0.000141119
0.000141512
0.000140971
0.00014614
0.000146601
0.000146005
0.000146411
0.000146671
0.000150501
0.000150138
0.000150383
0.000149897
0.000150276
0.00015301
0.000152622
0.000152869
0.000153089
0.00015269
0.000155392
0.000154933
0.000155153
0.000154903
0.000155109
0.000156493
0.00015633
0.000156635
0.000156366
0.000156608
0.000157783
0.000157978
0.000158175
0.000157761
0.000158157
0.000159004
0.00015813
0.000158239
0.000158898
0.000158881
0.000158538
0.000158246
0.000158461
0.000157974
0.000158402
0.000160491
0.000160381
0.000160269
0.000160263
0.000160244
0.000160556
0.000160654
0.000160445
0.000160665
0.000161556
0.000160984
0.000161166
0.00016089
0.000160902
0.000161024
0.000162816
0.000162812
0.000162362
0.000162815
0.000162674
0.000163901
0.000164937
0.000165368
0.000164146
0.000164677
0.000164722
0.000164954
0.000164823
0.000164944
0.000165005
0.000167308
0.000167541
0.000167394
0.000167276
0.000167427
0.000169506
0.000169394
0.000169716
0.000169558
0.000169398
0.000171027
0.000170777
0.00017111
0.000170798
0.000170811
0.000174222
0.000174173
0.000173902
0.000174307
0.000173816
0.000175727
0.000175942
0.000175652
0.000175427
0.000175653
0.00017831
0.000178266
0.000178108
0.000177884
0.000177871
0.00017928
0.000179826
0.000180043
0.000179541
0.000179552
0.000179897
0.000180315
0.000180209
0.000180354
0.000180214
0.000181782
0.000182043
0.000181988
0.000181991
0.000182024
0.000183757
0.000183973
0.000184013
0.000184016
0.000183975
0.000185108
0.000185094
0.000184976
0.00018503
0.000184719
0.000185838
0.000185749
0.000186071
0.000186309
0.000185699
0.000186749
0.000186619
0.000186154
0.000186291
0.000186714
0.000186422
0.000186311
0.000186371
0.000186504
0.000186417
)
;
    }
}


// ************************************************************************* //
