/*--------------------------------*- C++ -*----------------------------------*\
| =========                 |                                                 |
| \\      /  F ield         | OpenFOAM: The Open Source CFD Toolbox           |
|  \\    /   O peration     | Version:  v2006                                 |
|   \\  /    A nd           | Website:  www.openfoam.com                      |
|    \\/     M anipulation  |                                                 |
\*---------------------------------------------------------------------------*/
FoamFile
{
    version     2.0;
    format      ascii;
    class       volScalarField;
    location    "100";
    object      p;
}
// * * * * * * * * * * * * * * * * * * * * * * * * * * * * * * * * * * * * * //

dimensions      [0 2 -2 0 0 0 0];


internalField   nonuniform List<scalar> 
1250
(
-0.141411
-0.142888
-0.145347
-0.14801
-0.15205
-0.153595
-0.150796
-0.145942
-0.138106
-0.131133
-0.124671
-0.120191
-0.116546
-0.112167
-0.10627
-0.0991823
-0.0904655
-0.0805466
-0.0699902
-0.0598742
-0.050649
-0.0424175
-0.0348522
-0.0279185
-0.0215627
-0.0157058
-0.010235
-0.00524703
-0.000561633
0.00360376
0.00746004
0.0109063
0.0140405
0.0169027
0.0193768
0.0214099
0.0231114
0.0241793
0.02477
0.0246079
0.0239239
0.0227584
0.0210184
0.0189318
0.0165306
0.0137918
0.0109543
0.00785404
0.00474819
0.00146239
-0.14141
-0.142889
-0.145347
-0.148009
-0.152051
-0.153601
-0.150789
-0.145943
-0.138117
-0.13119
-0.124675
-0.12019
-0.116561
-0.112189
-0.106305
-0.0992352
-0.0905439
-0.0806344
-0.0700884
-0.0599755
-0.0507482
-0.0425192
-0.0349636
-0.0280459
-0.0216975
-0.0158478
-0.0103912
-0.0054124
-0.000744028
0.00341221
0.00724833
0.010691
0.0138122
0.0166587
0.0191405
0.021195
0.0229068
0.0240037
0.0246073
0.0244646
0.0238014
0.0226455
0.0209258
0.0188519
0.0164633
0.0137396
0.0109106
0.00782149
0.00472237
0.00144543
-0.14141
-0.142889
-0.145348
-0.148008
-0.152056
-0.153599
-0.15079
-0.145948
-0.138117
-0.131157
-0.124659
-0.120189
-0.116544
-0.11215
-0.106245
-0.0991489
-0.0904377
-0.0805081
-0.0699422
-0.0598089
-0.0505762
-0.0423346
-0.0347626
-0.027828
-0.0214576
-0.0155811
-0.0101005
-0.00509083
-0.000396457
0.00379251
0.00765536
0.0111279
0.0142817
0.017151
0.0196428
0.0216807
0.0233484
0.0244073
0.0249755
0.0248051
0.0241078
0.0229144
0.0211588
0.0190475
0.0166254
0.0138724
0.0110154
0.0079045
0.00478515
0.00149289
-0.14141
-0.142888
-0.145347
-0.148008
-0.152056
-0.153594
-0.150792
-0.145945
-0.138102
-0.131066
-0.124644
-0.1202
-0.11653
-0.112103
-0.106169
-0.0990296
-0.0902864
-0.0803314
-0.0697542
-0.0596123
-0.0503815
-0.0421299
-0.0345432
-0.0275907
-0.0212023
-0.0153094
-0.00980606
-0.00477696
-5.70782e-05
0.00415062
0.00803913
0.0115281
0.0147046
0.0175928
0.0200841
0.0221011
0.0237316
0.024746
0.0252838
0.0250789
0.024351
0.023129
0.0213414
0.0192016
0.016752
0.0139764
0.0110968
0.00796974
0.0048341
0.00152943
-0.14141
-0.142889
-0.145348
-0.148009
-0.152055
-0.153595
-0.150795
-0.145945
-0.1381
-0.131057
-0.124645
-0.120196
-0.116536
-0.112131
-0.106215
-0.0990989
-0.0903679
-0.0804256
-0.0698495
-0.0597198
-0.0504938
-0.0422443
-0.0346625
-0.0277169
-0.021338
-0.0154523
-0.00996078
-0.00493974
-0.000231265
0.00396896
0.00784693
0.011333
0.0145056
0.0173902
0.0198754
0.0218968
0.0235442
0.0245786
0.0251296
0.0249415
0.0242277
0.0230218
0.0212499
0.0191265
0.0166923
0.013928
0.0110605
0.00794053
0.00481267
0.00151168
-0.100621
-0.102937
-0.109341
-0.112485
-0.115591
-0.114855
-0.110684
-0.103854
-0.0981725
-0.0936101
-0.0908046
-0.0880663
-0.0843443
-0.0795619
-0.0744002
-0.0687116
-0.0622685
-0.0551507
-0.0474178
-0.0396772
-0.0323443
-0.0256861
-0.0196571
-0.0141909
-0.00920413
-0.00464023
-0.000405011
0.00346128
0.00707155
0.0102586
0.0131448
0.0157338
0.0180543
0.0201597
0.0219635
0.0233978
0.0245486
0.0252353
0.0254658
0.0250911
0.0242416
0.0229176
0.0211291
0.0189786
0.016544
0.0138137
0.0109516
0.00786663
0.0047472
0.00147174
-0.100621
-0.102936
-0.10934
-0.112481
-0.115593
-0.114857
-0.110664
-0.103848
-0.0982193
-0.0936443
-0.0908014
-0.088038
-0.0843153
-0.0795485
-0.0743984
-0.0687172
-0.0622957
-0.0552044
-0.0474988
-0.0397768
-0.032425
-0.0257524
-0.0197263
-0.0142677
-0.0092847
-0.00472333
-0.00049794
0.00336385
0.00696448
0.0101495
0.0130243
0.0156129
0.0179173
0.0199838
0.0217575
0.0232005
0.0243689
0.0250855
0.0253292
0.0249701
0.0241332
0.0228157
0.0210408
0.0188991
0.0164745
0.0137522
0.0108979
0.00782162
0.00471007
0.00144441
-0.10062
-0.102936
-0.109344
-0.112481
-0.115587
-0.114854
-0.110686
-0.103875
-0.098184
-0.0935721
-0.0907561
-0.08803
-0.0843295
-0.0795742
-0.0744251
-0.0687353
-0.0623051
-0.0552032
-0.0474787
-0.0397174
-0.0323132
-0.0256444
-0.0196227
-0.0141617
-0.00917295
-0.00460575
-0.000369067
0.00350361
0.00711939
0.0103158
0.0132079
0.0158089
0.018139
0.0202434
0.0220622
0.0235331
0.0247005
0.0253989
0.0256312
0.0252561
0.0244008
0.0230614
0.0212592
0.0190899
0.0166382
0.0138893
0.0110099
0.0079131
0.00478194
0.0015015
-0.100621
-0.102936
-0.109339
-0.112483
-0.115599
-0.114848
-0.110672
-0.103878
-0.0981891
-0.0935732
-0.0907554
-0.0880346
-0.084338
-0.0795791
-0.0744234
-0.0687201
-0.0622657
-0.055134
-0.0473785
-0.0395857
-0.032175
-0.0255159
-0.019496
-0.0140327
-0.00903942
-0.00446316
-0.000217596
0.00366806
0.00729453
0.0105014
0.0134055
0.0160179
0.0183733
0.0205263
0.0223922
0.0238716
0.0250089
0.0256715
0.0258778
0.0254857
0.0246098
0.0232529
0.021428
0.0192377
0.0167661
0.0140006
0.0111017
0.00799261
0.00484513
0.00155178
-0.10062
-0.102937
-0.109343
-0.11248
-0.115593
-0.114852
-0.11069
-0.103881
-0.09818
-0.09357
-0.0907596
-0.0880462
-0.0843501
-0.0795774
-0.0744127
-0.0687106
-0.0622515
-0.0551111
-0.0473485
-0.0395676
-0.0321949
-0.0255427
-0.0195184
-0.0140534
-0.00906107
-0.0044901
-0.000244915
0.00363272
0.00725734
0.0104544
0.013356
0.0159576
0.0183053
0.0204526
0.0223108
0.0237736
0.0249059
0.0255604
0.0257695
0.0253735
0.0245062
0.023159
0.0213437
0.0191668
0.0167097
0.0139552
0.0110675
0.00796384
0.00482386
0.00153178
-0.0222212
-0.0208763
-0.019424
-0.0242734
-0.0318289
-0.0362837
-0.0364328
-0.0337275
-0.0306908
-0.0269418
-0.0219443
-0.0164755
-0.0118855
-0.00815505
-0.00507743
-0.00201437
0.00148188
0.00520298
0.00891069
0.0122537
0.0150602
0.0173927
0.0194294
0.0211659
0.0226724
0.0239573
0.0250963
0.0260328
0.0268862
0.0275328
0.0280021
0.0283661
0.0286611
0.0289279
0.0291276
0.0291098
0.029
0.0286148
0.0279691
0.0269027
0.0255213
0.0238026
0.0217321
0.0193715
0.0168008
0.013976
0.0110452
0.00791769
0.00477383
0.00148048
-0.0222211
-0.0208815
-0.0194048
-0.024264
-0.0318561
-0.0362814
-0.0364277
-0.0337271
-0.0307032
-0.0269296
-0.0219139
-0.0164545
-0.0118931
-0.0081686
-0.00508625
-0.00201789
0.00146271
0.00515751
0.00883863
0.0121687
0.0149595
0.0172935
0.0193225
0.0210543
0.0225577
0.0238474
0.024978
0.0259139
0.0267609
0.0274141
0.0278748
0.0282506
0.0285378
0.028788
0.0289801
0.0289666
0.0288512
0.028482
0.0278388
0.0267882
0.0254183
0.0237045
0.0216461
0.0192936
0.0167346
0.0139065
0.0109799
0.007859
0.00472112
0.00144034
-0.0222208
-0.0208762
-0.01943
-0.0242519
-0.0318399
-0.0362845
-0.0364345
-0.0337361
-0.0307238
-0.0269631
-0.0219699
-0.0165129
-0.0119387
-0.00820007
-0.00510928
-0.0020391
0.00144947
0.00514754
0.00882683
0.0121641
0.0149677
0.0173117
0.0193469
0.0210853
0.0225943
0.0238925
0.0250283
0.0259766
0.0268308
0.0274978
0.0279688
0.028361
0.028674
0.0289503
0.0291698
0.0291907
0.0290936
0.0287364
0.0280951
0.0270481
0.0256675
0.0239368
0.0218546
0.0194807
0.016898
0.0140526
0.0110984
0.00796083
0.00479758
0.00150908
-0.0222204
-0.0208769
-0.019419
-0.0242707
-0.0318391
-0.0362808
-0.0364339
-0.0337265
-0.0307077
-0.0269468
-0.0219544
-0.0164973
-0.0119265
-0.00819701
-0.00511238
-0.0020453
0.00145502
0.00516821
0.00886809
0.0122217
0.0150482
0.0173981
0.0194432
0.0211898
0.0227067
0.0240046
0.0251557
0.026108
0.026982
0.0276478
0.0281398
0.0285282
0.0288619
0.029163
0.0294003
0.0294199
0.0293364
0.0289572
0.0283141
0.0272472
0.0258515
0.0241087
0.0220099
0.0196143
0.0170184
0.0141587
0.0111931
0.00804673
0.0048749
0.00157551
-0.0222204
-0.0208789
-0.0194173
-0.0242594
-0.0318401
-0.0362942
-0.0364379
-0.0337567
-0.030744
-0.0269751
-0.0219797
-0.0165338
-0.0119617
-0.00822157
-0.00513526
-0.00207697
0.00141491
0.00513942
0.00885458
0.012218
0.015043
0.0173937
0.0194367
0.0211807
0.0226886
0.0239888
0.0251272
0.0260856
0.0269437
0.0276088
0.0280833
0.0284677
0.0287831
0.0290773
0.0292944
0.0293158
0.0292122
0.0288421
0.0281898
0.027132
0.0257421
0.0240144
0.0219232
0.0195532
0.0169749
0.0141401
0.0111755
0.00803998
0.00485949
0.00156776
0.0913728
0.0628315
0.0643133
0.0692413
0.0759083
0.0816898
0.0872714
0.0925392
0.09715
0.099772
0.0998134
0.0973918
0.0931699
0.0885408
0.0842542
0.0804426
0.0770098
0.0738655
0.0709707
0.068274
0.0657793
0.0634121
0.0611812
0.0590167
0.0569249
0.0549012
0.0529441
0.051035
0.049185
0.0473415
0.045567
0.043861
0.042182
0.0406628
0.0390579
0.0373495
0.0357524
0.0340238
0.0321922
0.0301899
0.0280162
0.0256631
0.0230738
0.020301
0.017443
0.0144291
0.0113225
0.00810106
0.00487831
0.00155271
0.0913755
0.0628285
0.0643115
0.0692485
0.0759107
0.0817046
0.0872778
0.092541
0.097155
0.0997841
0.0998006
0.0973519
0.0931234
0.088499
0.0842051
0.0803815
0.0769354
0.073776
0.0708764
0.0681841
0.0656929
0.0633272
0.0610931
0.0589246
0.0568339
0.05481
0.0528545
0.0509447
0.0491034
0.0472659
0.045495
0.0438042
0.0421203
0.0405891
0.0389861
0.0372701
0.0356658
0.0339383
0.0321126
0.030117
0.0279493
0.0256003
0.0230222
0.0202508
0.0174147
0.0143664
0.0112636
0.00803616
0.00482211
0.00151029
0.0913775
0.0628255
0.0643119
0.0692364
0.0759093
0.0816976
0.0872724
0.0925377
0.0971526
0.0997847
0.0997946
0.0973524
0.0931179
0.0884821
0.0841911
0.0803818
0.0769539
0.0738048
0.0709013
0.0682045
0.0657144
0.0633481
0.0611179
0.0589539
0.056869
0.0548456
0.0528997
0.0509898
0.0491631
0.0473313
0.0455728
0.0438987
0.0422398
0.0407271
0.0391553
0.0374602
0.0358823
0.0341579
0.0323399
0.0303431
0.0281561
0.025796
0.0232022
0.0204154
0.01756
0.0145108
0.0113828
0.00813192
0.00489348
0.00157283
0.0913761
0.0628327
0.0643058
0.0692391
0.0759122
0.0817057
0.0872655
0.0925294
0.0971589
0.0998047
0.099812
0.0973727
0.0931454
0.0885227
0.0842326
0.0804132
0.0769721
0.0738252
0.0709263
0.0682383
0.0657505
0.0633863
0.0611572
0.0589953
0.05691
0.0548933
0.0529485
0.0510506
0.0492176
0.047394
0.0456347
0.0439603
0.0423108
0.0408013
0.0392181
0.0375311
0.0359551
0.0342238
0.0323926
0.0303935
0.0281812
0.0258271
0.023242
0.0204527
0.0175904
0.0145531
0.0114203
0.00818843
0.00493776
0.00162696
0.0913799
0.062828
0.0643145
0.0692365
0.0758999
0.081702
0.0872738
0.0925315
0.0971471
0.0997816
0.099803
0.0973649
0.0931321
0.0884919
0.0841876
0.0803596
0.0769186
0.0737806
0.0709
0.0682155
0.0657355
0.0633725
0.0611477
0.0589858
0.0569007
0.0548778
0.0529322
0.0510293
0.0491891
0.0473491
0.0455888
0.0438937
0.0422343
0.0407219
0.0391329
0.0374382
0.035865
0.0341405
0.0323121
0.0303182
0.028135
0.0257826
0.0231934
0.0204412
0.0176159
0.0145929
0.0114578
0.00821535
0.00494758
0.00163406
0.283852
0.300491
0.295271
0.291871
0.288204
0.281478
0.271485
0.25911
0.246448
0.235511
0.226335
0.218048
0.211123
0.204523
0.198073
0.191637
0.185232
0.178886
0.172522
0.166049
0.159438
0.152663
0.145781
0.138847
0.131909
0.125035
0.118266
0.111546
0.104937
0.0984522
0.0921343
0.0858456
0.0797388
0.0736379
0.0676422
0.0618132
0.0561952
0.0507441
0.0455695
0.0406439
0.036006
0.0316083
0.0274164
0.0234219
0.0196025
0.0158982
0.0122619
0.00869888
0.00519817
0.00174889
0.283851
0.300491
0.29528
0.291877
0.288214
0.281489
0.271495
0.2591
0.246453
0.23553
0.226365
0.218072
0.211136
0.204511
0.198036
0.191579
0.185171
0.178843
0.172491
0.166017
0.159398
0.152613
0.145725
0.138786
0.131842
0.124968
0.118196
0.111482
0.104873
0.0983908
0.092071
0.0857765
0.0796741
0.0735791
0.0675896
0.0617678
0.0561547
0.0507089
0.0455404
0.040621
0.0359823
0.0315838
0.0273959
0.0233776
0.0195136
0.0158377
0.0122114
0.00868089
0.00520076
0.00174731
0.28385
0.300495
0.295275
0.291865
0.288211
0.281494
0.271501
0.259106
0.246436
0.235508
0.226343
0.218048
0.21112
0.20451
0.19805
0.191611
0.18521
0.178882
0.17253
0.16605
0.159435
0.152654
0.145772
0.13884
0.131904
0.125035
0.118268
0.111567
0.104964
0.0984879
0.0921813
0.0858934
0.0798008
0.0737255
0.0677504
0.0619465
0.0563474
0.0509078
0.0457388
0.0408184
0.0361572
0.031749
0.027552
0.0235132
0.0196415
0.015914
0.0122864
0.00872472
0.00522533
0.00176786
0.283853
0.300487
0.29528
0.291874
0.288205
0.281484
0.271495
0.259115
0.246449
0.235517
0.226347
0.218052
0.211136
0.204529
0.198065
0.191621
0.185219
0.178896
0.17256
0.166087
0.159477
0.152696
0.145811
0.138878
0.131943
0.125075
0.11831
0.111606
0.105013
0.0985365
0.0922354
0.0859582
0.0798609
0.073784
0.0678065
0.0620017
0.0563981
0.050961
0.0457794
0.040868
0.0362016
0.0317721
0.0275704
0.0235303
0.0196573
0.0159296
0.0123162
0.00875616
0.0052547
0.00178955
0.283853
0.30049
0.295271
0.291875
0.288206
0.281493
0.271494
0.259105
0.246437
0.235514
0.226338
0.218032
0.211098
0.20449
0.198045
0.191622
0.185228
0.178893
0.17254
0.166061
0.15944
0.152655
0.145764
0.138825
0.131887
0.125016
0.118249
0.111535
0.104936
0.098459
0.0921511
0.0858769
0.0797765
0.0736949
0.0677166
0.0619097
0.0563102
0.0508765
0.0457075
0.040798
0.0361541
0.0317396
0.0275489
0.0235067
0.0196383
0.0159049
0.0122932
0.0087439
0.00525859
0.00178602
)
;

boundaryField
{
    inlet
    {
        type            zeroGradient;
    }
    outlet
    {
        type            fixedValue;
        value           uniform 0;
    }
    side1
    {
        type            cyclicAMI;
        value           nonuniform List<scalar> 
250
(
-0.14141
-0.10062
-0.0222208
0.0913763
0.283852
-0.142889
-0.102937
-0.0208777
0.0628296
0.30049
-0.145347
-0.109342
-0.0194207
0.0643138
0.295271
-0.14801
-0.112482
-0.0242665
0.0692388
0.291873
-0.152053
-0.115592
-0.0318345
0.075904
0.288205
-0.153595
-0.114853
-0.036289
0.0816958
0.281486
-0.150796
-0.110687
-0.0364354
0.0872725
0.271489
-0.145943
-0.103867
-0.0337421
0.0925353
0.259107
-0.138103
-0.0981762
-0.0307174
0.0971485
0.246442
-0.131095
-0.0935901
-0.0269585
0.0997767
0.235513
-0.124658
-0.0907821
-0.0219621
0.0998081
0.226336
-0.120193
-0.0880563
-0.0165047
0.0973783
0.21804
-0.116541
-0.0843472
-0.0119236
0.0931509
0.21111
-0.112149
-0.0795697
-0.00818835
0.0885163
0.204506
-0.106242
-0.0744065
-0.00510638
0.0842208
0.198059
-0.0991406
-0.0687111
-0.00204571
0.080401
0.191629
-0.0904167
-0.06226
0.00144836
0.0769641
0.18523
-0.0804861
-0.0551309
0.00517117
0.073823
0.17889
-0.0699198
-0.0473831
0.0088826
0.0709353
0.172531
-0.059797
-0.0396224
0.0122358
0.0682447
0.166055
-0.0505714
-0.0322696
0.0150516
0.0657573
0.159439
-0.0423309
-0.0256144
0.0173931
0.0633923
0.152659
-0.0347573
-0.0195878
0.0194331
0.0611644
0.145772
-0.0278177
-0.0141222
0.0211733
0.0590012
0.138836
-0.0214504
-0.0091326
0.0226805
0.0569128
0.131898
-0.0155791
-0.00456516
0.0239731
0.0548894
0.125025
-0.0100979
-0.000324963
0.0251117
0.0529381
0.118258
-0.00509339
0.003547
0.0260592
0.0510321
0.11154
-0.000396449
0.00716444
0.0269149
0.049187
0.104937
0.00378636
0.0103565
0.0275708
0.0473453
0.0984556
0.00765349
0.0132504
0.0280427
0.0455779
0.0921426
0.0111196
0.0158457
0.0284169
0.0438773
0.0858612
0.014273
0.0181798
0.0287221
0.0422081
0.0797576
0.0171465
0.0203062
0.0290026
0.0406924
0.0736663
0.0196261
0.0221371
0.029211
0.0390954
0.0676793
0.0216534
0.0235857
0.0292128
0.0373938
0.0618614
0.0233278
0.0247272
0.0291061
0.0358087
0.0562527
0.0243789
0.0253978
0.0287284
0.0340822
0.0508103
0.0249498
0.0256176
0.0280794
0.0322521
0.0456385
0.0247747
0.0252323
0.0270173
0.0302541
0.0407209
0.0240758
0.0243739
0.0256317
0.0280756
0.0360801
0.0228901
0.0230383
0.0239085
0.0257228
0.0316739
0.0211342
0.0212364
0.0218276
0.0231336
0.0274826
0.0190291
0.0190727
0.0194623
0.0203711
0.0234643
0.0166114
0.0166269
0.0168878
0.0175294
0.0196204
0.0138599
0.0138844
0.014058
0.014511
0.0159016
0.0110074
0.0110096
0.0111103
0.0113901
0.0122775
0.00789729
0.00791524
0.00797884
0.00815821
0.00872139
0.00478043
0.00478553
0.00481666
0.00491294
0.00522838
0.00148704
0.00150176
0.00152412
0.00159339
0.00176746
)
;
    }
    side2
    {
        type            cyclicAMI;
        value           nonuniform List<scalar> 
250
(
-0.14141
-0.10062
-0.0222207
0.0913766
0.283852
-0.142889
-0.102937
-0.0208775
0.06283
0.30049
-0.145347
-0.109342
-0.0194206
0.0643142
0.295271
-0.14801
-0.112482
-0.0242664
0.0692391
0.291873
-0.152053
-0.115592
-0.0318344
0.0759044
0.288205
-0.153595
-0.114853
-0.0362888
0.0816961
0.281486
-0.150796
-0.110687
-0.0364353
0.0872728
0.27149
-0.145943
-0.103867
-0.033742
0.0925356
0.259107
-0.138103
-0.0981762
-0.0307173
0.0971487
0.246443
-0.131095
-0.09359
-0.0269584
0.0997769
0.235513
-0.124658
-0.090782
-0.0219619
0.0998083
0.226336
-0.120193
-0.0880562
-0.0165046
0.0973785
0.21804
-0.116541
-0.0843472
-0.0119235
0.0931511
0.21111
-0.112149
-0.0795696
-0.00818823
0.0885165
0.204506
-0.106242
-0.0744064
-0.00510627
0.084221
0.198059
-0.0991406
-0.0687111
-0.0020456
0.0804012
0.19163
-0.0904167
-0.0622599
0.00144846
0.0769643
0.18523
-0.0804861
-0.0551308
0.00517126
0.0738232
0.17889
-0.0699198
-0.0473831
0.00888269
0.0709355
0.172531
-0.059797
-0.0396224
0.0122359
0.0682449
0.166055
-0.0505714
-0.0322695
0.0150517
0.0657575
0.159439
-0.0423309
-0.0256144
0.0173932
0.0633924
0.152659
-0.0347573
-0.0195878
0.0194331
0.0611645
0.145772
-0.0278177
-0.0141222
0.0211733
0.0590013
0.138836
-0.0214504
-0.00913259
0.0226805
0.0569129
0.131898
-0.0155791
-0.00456515
0.0239731
0.0548895
0.125025
-0.0100979
-0.000324949
0.0251117
0.0529382
0.118258
-0.00509339
0.00354701
0.0260592
0.0510322
0.11154
-0.000396449
0.00716446
0.026915
0.0491871
0.104937
0.00378636
0.0103565
0.0275708
0.0473453
0.0984556
0.00765349
0.0132504
0.0280427
0.045578
0.0921427
0.0111196
0.0158457
0.0284169
0.0438774
0.0858612
0.014273
0.0181798
0.0287221
0.0422082
0.0797577
0.0171465
0.0203062
0.0290026
0.0406924
0.0736664
0.0196261
0.0221371
0.0292111
0.0390954
0.0676794
0.0216534
0.0235857
0.0292128
0.0373938
0.0618615
0.0233278
0.0247272
0.0291061
0.0358087
0.0562527
0.0243789
0.0253978
0.0287284
0.0340822
0.0508103
0.0249498
0.0256176
0.0280794
0.0322522
0.0456385
0.0247747
0.0252323
0.0270173
0.0302541
0.0407209
0.0240758
0.0243739
0.0256317
0.0280756
0.0360801
0.0228901
0.0230383
0.0239085
0.0257228
0.0316739
0.0211342
0.0212364
0.0218276
0.0231336
0.0274826
0.0190291
0.0190727
0.0194623
0.0203711
0.0234643
0.0166114
0.0166269
0.0168878
0.0175294
0.0196204
0.0138599
0.0138844
0.014058
0.014511
0.0159016
0.0110074
0.0110096
0.0111103
0.0113901
0.0122775
0.00789729
0.00791524
0.00797884
0.00815821
0.00872139
0.00478043
0.00478553
0.00481666
0.00491294
0.00522838
0.00148704
0.00150176
0.00152412
0.00159339
0.00176746
)
;
    }
    walls
    {
        type            zeroGradient;
    }
}


// ************************************************************************* //
