/*--------------------------------*- C++ -*----------------------------------*\
| =========                 |                                                 |
| \\      /  F ield         | OpenFOAM: The Open Source CFD Toolbox           |
|  \\    /   O peration     | Version:  v2006                                 |
|   \\  /    A nd           | Website:  www.openfoam.com                      |
|    \\/     M anipulation  |                                                 |
\*---------------------------------------------------------------------------*/
FoamFile
{
    version     2.0;
    format      ascii;
    class       volVectorField;
    location    "100";
    object      U;
}
// * * * * * * * * * * * * * * * * * * * * * * * * * * * * * * * * * * * * * //

dimensions      [0 1 -1 0 0 0 0];


internalField   nonuniform List<vector> 
1250
(
(0.999834 0.102655 0.0787543)
(1.00178 0.100203 0.0774043)
(1.00385 0.0942707 0.0777464)
(1.00667 0.0906356 0.075745)
(1.01107 0.0900169 0.0722164)
(1.01183 0.0923568 0.0665609)
(1.01012 0.09981 0.0617823)
(1.00293 0.105651 0.062429)
(0.992643 0.106459 0.0673585)
(0.983561 0.0957005 0.0596766)
(0.971653 0.0871789 0.0574729)
(0.963456 0.0863936 0.0585844)
(0.956034 0.0864457 0.059037)
(0.950301 0.0856264 0.0584869)
(0.947777 0.0839183 0.0571778)
(0.948648 0.0815868 0.0555243)
(0.95248 0.0784558 0.0535701)
(0.958007 0.0750048 0.0514936)
(0.964133 0.0714426 0.0493366)
(0.970073 0.0679637 0.0471507)
(0.975466 0.0645813 0.0449253)
(0.980201 0.0612601 0.0427017)
(0.984329 0.0579928 0.0405105)
(0.988002 0.0547706 0.0383444)
(0.991298 0.0515883 0.0361832)
(0.994192 0.0484387 0.0340322)
(0.996803 0.0452957 0.0318869)
(0.999137 0.0421782 0.029735)
(1.00123 0.0390505 0.0275812)
(1.00314 0.0359572 0.0254262)
(1.00485 0.0328576 0.0232825)
(1.00639 0.0298007 0.0211364)
(1.00775 0.0267903 0.0190299)
(1.00898 0.0238445 0.0169677)
(1.01013 0.021019 0.0149656)
(1.01112 0.0183449 0.0130539)
(1.01197 0.0158169 0.0112802)
(1.0127 0.0134753 0.00961827)
(1.01327 0.0113295 0.00810576)
(1.01373 0.0094196 0.00674155)
(1.01406 0.00774189 0.00554144)
(1.01429 0.00628602 0.00450677)
(1.01447 0.00504493 0.0036139)
(1.01457 0.00400165 0.00286876)
(1.01463 0.00313301 0.00224533)
(1.01468 0.00242736 0.00173556)
(1.0147 0.00184751 0.00132244)
(1.01471 0.00140053 0.000999603)
(1.01471 0.00102993 0.00073394)
(1.01472 0.000778956 0.000553415)
(0.999832 0.121965 0.0431808)
(1.00179 0.119216 0.0426507)
(1.00385 0.113688 0.0447961)
(1.00667 0.109607 0.0440397)
(1.01107 0.107905 0.0408587)
(1.01184 0.108412 0.0348011)
(1.01011 0.114072 0.0278317)
(1.00295 0.119726 0.0268858)
(0.992718 0.122165 0.0307058)
(0.983554 0.109445 0.0269492)
(0.971665 0.100667 0.0276914)
(0.963473 0.10024 0.0290263)
(0.956052 0.100447 0.0294176)
(0.950314 0.0995226 0.0291284)
(0.947779 0.0975116 0.0283998)
(0.948637 0.0948008 0.0275299)
(0.952457 0.0912377 0.0266317)
(0.957977 0.0873243 0.0257206)
(0.964099 0.0832736 0.0247721)
(0.970039 0.0792919 0.0237705)
(0.975437 0.0753927 0.0226983)
(0.980175 0.071546 0.0216067)
(0.984306 0.067763 0.0205315)
(0.987981 0.0640323 0.019467)
(0.991279 0.0603397 0.018393)
(0.994174 0.0566813 0.0173181)
(0.996786 0.0530334 0.0162477)
(0.999122 0.0494059 0.0151621)
(1.00122 0.0457702 0.0140792)
(1.00312 0.0421655 0.012983)
(1.00484 0.03856 0.0119018)
(1.00638 0.0349911 0.0108025)
(1.00774 0.0314814 0.00972566)
(1.00897 0.0280595 0.00866366)
(1.01013 0.0247772 0.00761193)
(1.01111 0.0216419 0.00662126)
(1.01197 0.0186758 0.00573902)
(1.0127 0.0159164 0.00490539)
(1.01326 0.0133959 0.00414681)
(1.01372 0.0111475 0.00344901)
(1.01405 0.00917169 0.00283281)
(1.01429 0.00745884 0.00230534)
(1.01447 0.00599227 0.0018449)
(1.01457 0.00476013 0.00146421)
(1.01463 0.00373163 0.00114469)
(1.01468 0.00289336 0.000882036)
(1.0147 0.00220596 0.000672364)
(1.01471 0.00167333 0.000506411)
(1.01471 0.00123208 0.000371145)
(1.01473 0.000932871 0.000278951)
(0.999833 0.129339 0.0033763)
(1.00179 0.12656 0.003723)
(1.00385 0.121968 0.0074771)
(1.00667 0.117849 0.00801528)
(1.01107 0.115266 0.00550464)
(1.01185 0.113843 -0.000425371)
(1.01012 0.117085 -0.00873072)
(1.00294 0.122186 -0.0115013)
(0.992746 0.125647 -0.00838355)
(0.983612 0.112562 -0.00803526)
(0.971712 0.104324 -0.00479487)
(0.963513 0.104291 -0.0034084)
(0.956083 0.10462 -0.00306847)
(0.95033 0.10367 -0.00302051)
(0.947774 0.101543 -0.00306602)
(0.94861 0.0987093 -0.00302947)
(0.952413 0.0950521 -0.00276127)
(0.957923 0.0910551 -0.0024057)
(0.964044 0.0869108 -0.00205144)
(0.969989 0.082816 -0.0017713)
(0.975394 0.078773 -0.00158406)
(0.980136 0.07478 -0.00142937)
(0.984271 0.0708511 -0.00127765)
(0.987949 0.0669738 -0.0011314)
(0.99125 0.0631317 -0.00100654)
(0.994148 0.0593226 -0.000892803)
(0.996763 0.0555236 -0.000777223)
(0.999101 0.0517406 -0.000683194)
(1.0012 0.0479494 -0.000583709)
(1.00311 0.0441857 -0.000507703)
(1.00482 0.0404237 -0.000418538)
(1.00636 0.0366929 -0.000361763)
(1.00773 0.0330248 -0.000303241)
(1.00896 0.0294424 -0.000250794)
(1.01011 0.0259979 -0.000218753)
(1.0111 0.0227194 -0.000176425)
(1.01196 0.0196228 -0.000116536)
(1.01269 0.0167329 -8.65984e-05)
(1.01326 0.0140924 -5.07639e-05)
(1.01372 0.0117321 -3.47818e-05)
(1.01405 0.00965691 -2.3303e-05)
(1.01429 0.00785828 -8.41803e-06)
(1.01447 0.00631537 -6.72718e-06)
(1.01457 0.00501941 -1.04367e-06)
(1.01464 0.00393637 4.74233e-07)
(1.01468 0.00305246 -1.68507e-06)
(1.0147 0.00232868 1.24045e-06)
(1.01471 0.00176651 -7.76014e-07)
(1.01472 0.00130099 -7.45218e-07)
(1.01473 0.000985458 -1.72426e-06)
(0.999835 0.124053 -0.0367578)
(1.00179 0.121517 -0.0355692)
(1.00385 0.118309 -0.0305794)
(1.00667 0.114556 -0.0287978)
(1.01107 0.111333 -0.0303693)
(1.01185 0.108143 -0.0355917)
(1.01012 0.108659 -0.0444961)
(1.00293 0.112671 -0.0487277)
(0.992765 0.116841 -0.0467122)
(0.9836 0.104598 -0.042218)
(0.971693 0.0977551 -0.0367787)
(0.963487 0.0981397 -0.0355022)
(0.956057 0.0985603 -0.0352465)
(0.950313 0.097674 -0.0348681)
(0.947774 0.0956372 -0.0342248)
(0.948631 0.0929554 -0.0332804)
(0.952451 0.0895557 -0.0318698)
(0.957971 0.085862 -0.0302834)
(0.964094 0.0820272 -0.0286622)
(0.970037 0.0782175 -0.0271297)
(0.975437 0.0744266 -0.0256975)
(0.980174 0.0706773 -0.0243116)
(0.984306 0.0669868 -0.0229484)
(0.987981 0.0633424 -0.0216058)
(0.991279 0.0597265 -0.0202944)
(0.994175 0.0561386 -0.0190032)
(0.996788 0.0525594 -0.0177127)
(0.999124 0.0489898 -0.0164478)
(1.00122 0.0454123 -0.0151749)
(1.00313 0.0418551 -0.0139331)
(1.00484 0.0383015 -0.0126805)
(1.00638 0.0347705 -0.0114694)
(1.00774 0.0313006 -0.0102734)
(1.00897 0.0279173 -0.00909317)
(1.01011 0.0246632 -0.0079549)
(1.0111 0.0215504 -0.00689923)
(1.01196 0.0186109 -0.00592381)
(1.0127 0.0158658 -0.00504682)
(1.01327 0.0133625 -0.00422707)
(1.01373 0.011123 -0.00350228)
(1.01406 0.00915447 -0.00286608)
(1.01429 0.00744934 -0.00231142)
(1.01447 0.00598489 -0.00184878)
(1.01457 0.00475578 -0.00145827)
(1.01464 0.00372817 -0.00113688)
(1.01468 0.00288926 -0.000879442)
(1.0147 0.0022036 -0.00066517)
(1.01471 0.00167049 -0.000504025)
(1.01471 0.00122947 -0.000369531)
(1.01473 0.000930469 -0.000279789)
(0.999837 0.106624 -0.0732936)
(1.00178 0.104575 -0.071379)
(1.00385 0.103075 -0.0656427)
(1.00667 0.100048 -0.062791)
(1.01107 0.0964997 -0.0632832)
(1.01184 0.0918346 -0.0672809)
(1.01015 0.0896562 -0.0758229)
(1.0029 0.09199 -0.0811969)
(0.992727 0.096711 -0.0805156)
(0.983587 0.0863686 -0.0724845)
(0.971674 0.0816004 -0.0651561)
(0.96347 0.0823888 -0.0640826)
(0.956042 0.0828541 -0.0639775)
(0.950304 0.0821063 -0.0633518)
(0.947775 0.0803518 -0.0621161)
(0.948641 0.0780761 -0.0603945)
(0.952469 0.07526 -0.0580072)
(0.957995 0.0722272 -0.0553617)
(0.964121 0.0690769 -0.0526382)
(0.970063 0.0659242 -0.0500051)
(0.975458 0.0627589 -0.0474729)
(0.980193 0.0596202 -0.0449999)
(0.984322 0.0565285 -0.0425669)
(0.987996 0.0534736 -0.0401677)
(0.991293 0.0504373 -0.037807)
(0.994188 0.0474208 -0.0354741)
(0.996799 0.0444112 -0.0331445)
(0.999134 0.0414038 -0.0308423)
(1.00123 0.0383902 -0.0285298)
(1.00314 0.0353871 -0.0262521)
(1.00485 0.032391 -0.0239645)
(1.00639 0.0294074 -0.0217212)
(1.00775 0.0264778 -0.0195078)
(1.00897 0.0236192 -0.0173338)
(1.01012 0.020861 -0.0152444)
(1.0111 0.0182178 -0.0132786)
(1.01197 0.0157306 -0.0114384)
(1.0127 0.0134051 -0.00975077)
(1.01327 0.0112883 -0.00819273)
(1.01373 0.00939162 -0.00680664)
(1.01406 0.00772516 -0.00558819)
(1.01429 0.00628396 -0.00452854)
(1.01447 0.0050446 -0.00363101)
(1.01457 0.00400631 -0.00287547)
(1.01464 0.00313807 -0.00224849)
(1.01468 0.00242927 -0.00174137)
(1.0147 0.00185154 -0.0013229)
(1.01471 0.00140191 -0.00100279)
(1.01471 0.00103054 -0.000736674)
(1.01473 0.000778586 -0.00055722)
(0.999043 0.251577 0.177489)
(1.00366 0.256 0.177192)
(1.00838 0.266335 0.170797)
(1.01166 0.275074 0.174952)
(1.01418 0.275512 0.184897)
(1.01313 0.267167 0.198491)
(1.0095 0.251334 0.209669)
(1.00231 0.232557 0.207485)
(0.993151 0.219102 0.195834)
(0.986544 0.219436 0.180053)
(0.982144 0.227273 0.170974)
(0.976663 0.234908 0.169546)
(0.969515 0.238286 0.170346)
(0.961715 0.237341 0.169704)
(0.954422 0.233593 0.166725)
(0.949171 0.228552 0.16207)
(0.947467 0.222046 0.156301)
(0.949745 0.213961 0.149769)
(0.955011 0.204574 0.143008)
(0.961378 0.194835 0.136607)
(0.967285 0.185651 0.130623)
(0.972448 0.177035 0.124801)
(0.977039 0.168556 0.119034)
(0.981142 0.160165 0.113312)
(0.984829 0.151869 0.107607)
(0.988077 0.14365 0.101929)
(0.990999 0.13545 0.0962699)
(0.993622 0.127307 0.0905974)
(0.99596 0.119132 0.0849061)
(0.998098 0.111049 0.0792133)
(1.00002 0.102916 0.0735121)
(1.00171 0.0948062 0.0677365)
(1.00327 0.0866962 0.061964)
(1.0047 0.078587 0.0561863)
(1.00616 0.0706063 0.0504692)
(1.00757 0.062796 0.0448554)
(1.00887 0.0552187 0.039454)
(1.01012 0.0479894 0.0342602)
(1.01122 0.0411673 0.0294)
(1.01215 0.0349099 0.0249205)
(1.01289 0.0292636 0.0208828)
(1.01345 0.0242425 0.0173097)
(1.01389 0.0198477 0.0141631)
(1.01417 0.016068 0.0114706)
(1.01436 0.0128411 0.00916327)
(1.01448 0.0101585 0.00723643)
(1.01455 0.00789383 0.00562514)
(1.01458 0.00610857 0.00434781)
(1.01459 0.00458152 0.00325681)
(1.01457 0.00352871 0.00250394)
(0.999044 0.294111 0.0910586)
(1.00366 0.298222 0.0894179)
(1.00837 0.306102 0.0801028)
(1.01166 0.315688 0.0813826)
(1.0142 0.319104 0.0907168)
(1.0131 0.315411 0.106337)
(1.00946 0.303791 0.121547)
(1.00238 0.285181 0.125373)
(0.993269 0.269012 0.118445)
(0.986592 0.264638 0.103301)
(0.982142 0.269239 0.0924117)
(0.976668 0.275884 0.0887675)
(0.969534 0.279223 0.0884011)
(0.961738 0.278082 0.0879437)
(0.954431 0.273647 0.0861642)
(0.949176 0.267437 0.0832207)
(0.947481 0.259482 0.0797043)
(0.949761 0.249803 0.0759849)
(0.955017 0.238817 0.0724878)
(0.961384 0.227584 0.0694344)
(0.967301 0.217068 0.0665582)
(0.972446 0.207097 0.0636845)
(0.977032 0.197253 0.0608321)
(0.981132 0.187507 0.0579912)
(0.984816 0.177855 0.0551357)
(0.988065 0.168288 0.0522798)
(0.990988 0.158745 0.0494366)
(0.993612 0.149257 0.046562)
(0.995949 0.139734 0.04368)
(0.998089 0.130299 0.040764)
(1.00001 0.120814 0.0378573)
(1.00171 0.111327 0.0348684)
(1.00327 0.10183 0.0318831)
(1.00471 0.0923263 0.0288887)
(1.00615 0.0829997 0.0259181)
(1.00753 0.0739185 0.0230216)
(1.00884 0.0650707 0.0202549)
(1.01009 0.0565806 0.0175676)
(1.0112 0.0485751 0.0150748)
(1.01214 0.0412281 0.0127685)
(1.01288 0.0345961 0.0106946)
(1.01344 0.0286995 0.00886928)
(1.01388 0.0235243 0.00725255)
(1.01417 0.0190708 0.0058776)
(1.01436 0.0152603 0.00469441)
(1.01448 0.0120829 0.0037053)
(1.01455 0.00940304 0.00288272)
(1.01458 0.00728294 0.0022273)
(1.01459 0.00546874 0.00166716)
(1.01457 0.00422317 0.00128159)
(0.999043 0.307858 -0.00428511)
(1.00367 0.311259 -0.0071187)
(1.00837 0.315857 -0.0183681)
(1.01164 0.325363 -0.0201855)
(1.0142 0.33159 -0.012361)
(1.01312 0.332816 0.00366049)
(1.00947 0.326513 0.0219113)
(1.00239 0.30997 0.031108)
(0.993264 0.292411 0.0293223)
(0.986592 0.283553 0.0163645)
(0.982155 0.284567 0.0046687)
(0.976692 0.289807 -0.000861635)
(0.969552 0.292903 -0.00224148)
(0.961752 0.291726 -0.00228497)
(0.954441 0.28698 -0.00255088)
(0.949187 0.280184 -0.00338784)
(0.947491 0.271557 -0.00423666)
(0.949759 0.261234 -0.00474111)
(0.955008 0.249711 -0.0046464)
(0.961368 0.238084 -0.00409976)
(0.967233 0.227234 -0.00359761)
(0.972383 0.216851 -0.00321385)
(0.976979 0.206597 -0.00286001)
(0.981086 0.196445 -0.00253424)
(0.984778 0.18638 -0.00225349)
(0.988033 0.176398 -0.00199947)
(0.990962 0.166442 -0.0017427)
(0.99359 0.156531 -0.00152935)
(0.99593 0.146581 -0.00131174)
(0.998073 0.136713 -0.00115351)
(0.999999 0.126794 -0.000972715)
(1.0017 0.11685 -0.000867706)
(1.00326 0.106889 -0.000763292)
(1.00468 0.0969474 -0.000662308)
(1.0061 0.0872343 -0.000588696)
(1.00749 0.0777154 -0.000520982)
(1.00882 0.0684221 -0.000422527)
(1.01008 0.0594962 -0.000367332)
(1.0112 0.0510926 -0.000283594)
(1.01214 0.0433778 -0.000228555)
(1.01288 0.0364135 -0.000177463)
(1.01344 0.0302225 -0.000120102)
(1.01388 0.0247816 -8.94353e-05)
(1.01417 0.0200995 -5.25971e-05)
(1.01436 0.0160885 -3.26697e-05)
(1.01449 0.0127392 -2.34452e-05)
(1.01456 0.00991785 -7.1291e-06)
(1.01459 0.00768276 -2.94117e-06)
(1.01459 0.00576988 -5.32482e-07)
(1.01458 0.00445977 2.48632e-07)
(0.999042 0.291464 -0.0992059)
(1.00366 0.293825 -0.102957)
(1.00838 0.294728 -0.115092)
(1.01166 0.303241 -0.119712)
(1.01419 0.31148 -0.114197)
(1.0131 0.317669 -0.099414)
(1.00949 0.317289 -0.0802861)
(1.0024 0.304525 -0.0660716)
(0.993255 0.287166 -0.0622291)
(0.986592 0.274625 -0.0719452)
(0.982159 0.272026 -0.0835645)
(0.976697 0.275361 -0.0904656)
(0.969552 0.277887 -0.0926926)
(0.961742 0.276766 -0.0923155)
(0.954434 0.272186 -0.0910284)
(0.949179 0.265498 -0.0896688)
(0.94748 0.25705 -0.0877668)
(0.949756 0.247083 -0.0850069)
(0.955013 0.236152 -0.0813323)
(0.961374 0.225275 -0.0772204)
(0.967214 0.215106 -0.0733329)
(0.972372 0.205343 -0.0697378)
(0.976976 0.195695 -0.0662266)
(0.981087 0.186137 -0.0627753)
(0.984781 0.176651 -0.0593928)
(0.988038 0.167237 -0.0560593)
(0.990968 0.157846 -0.0527305)
(0.993596 0.148485 -0.049453)
(0.995937 0.139085 -0.0461584)
(0.998079 0.129748 -0.0429411)
(1 0.120367 -0.0396882)
(1.0017 0.110946 -0.0364985)
(1.00325 0.101508 -0.0333068)
(1.00467 0.0920779 -0.030112)
(1.0061 0.0828388 -0.027)
(1.00752 0.0737888 -0.0239743)
(1.00884 0.0649669 -0.0210188)
(1.01011 0.0564858 -0.0182267)
(1.01122 0.0485057 -0.0155746)
(1.01215 0.0411744 -0.013164)
(1.0129 0.0345553 -0.0109949)
(1.01346 0.0286751 -0.0090635)
(1.0139 0.0235054 -0.00739264)
(1.01418 0.0190596 -0.00595156)
(1.01437 0.0152495 -0.00473439)
(1.0145 0.0120677 -0.00373204)
(1.01456 0.00939219 -0.0028822)
(1.01459 0.00727245 -0.00222289)
(1.0146 0.00545902 -0.00166102)
(1.01459 0.00421605 -0.00127486)
(0.999043 0.246544 -0.184418)
(1.00367 0.247631 -0.188711)
(1.00836 0.24473 -0.200531)
(1.01167 0.251368 -0.207584)
(1.0142 0.260997 -0.204884)
(1.01309 0.271416 -0.192696)
(1.00949 0.276976 -0.174061)
(1.00239 0.269057 -0.15698)
(0.99322 0.253808 -0.148345)
(0.986542 0.239182 -0.15345)
(0.982132 0.233047 -0.163425)
(0.976683 0.233942 -0.170997)
(0.969534 0.235638 -0.173943)
(0.961721 0.234719 -0.173269)
(0.954425 0.230773 -0.170621)
(0.949173 0.224836 -0.167241)
(0.947469 0.217379 -0.162807)
(0.949741 0.208719 -0.157106)
(0.955008 0.199423 -0.150249)
(0.961374 0.190344 -0.142986)
(0.967239 0.181848 -0.136104)
(0.972405 0.173654 -0.129675)
(0.977006 0.165551 -0.123371)
(0.981116 0.157516 -0.117146)
(0.984807 0.149532 -0.111008)
(0.98806 0.1416 -0.104938)
(0.990986 0.133687 -0.0988784)
(0.993612 0.125785 -0.0928783)
(0.995952 0.117851 -0.0868496)
(0.998092 0.10995 -0.0809103)
(1.00001 0.10202 -0.0749245)
(1.00171 0.0940331 -0.0689856)
(1.00326 0.0860417 -0.0630442)
(1.00468 0.0780504 -0.0570991)
(1.00614 0.0701758 -0.0512637)
(1.00755 0.0624467 -0.0455677)
(1.00887 0.0549531 -0.04003)
(1.01012 0.047757 -0.0347651)
(1.01123 0.0409991 -0.0297853)
(1.01216 0.0347819 -0.0252285)
(1.0129 0.0291697 -0.0211197)
(1.01346 0.0241904 -0.0174655)
(1.0139 0.0198123 -0.0142785)
(1.01418 0.0160534 -0.0115378)
(1.01437 0.0128328 -0.00920609)
(1.01449 0.0101443 -0.00727438)
(1.01456 0.00788963 -0.00563999)
(1.01459 0.00610349 -0.00435982)
(1.01459 0.00457745 -0.0032643)
(1.01459 0.00352711 -0.00250902)
(0.999366 0.405914 0.2937)
(0.999158 0.396229 0.308863)
(0.998266 0.373808 0.317964)
(1.00519 0.367536 0.310435)
(1.01192 0.37285 0.296267)
(1.01639 0.388987 0.277571)
(1.01563 0.409307 0.264862)
(1.01233 0.427079 0.263905)
(1.00999 0.436868 0.273886)
(1.00662 0.434707 0.28962)
(1.00005 0.423126 0.30146)
(0.991664 0.407028 0.304771)
(0.983422 0.390838 0.300611)
(0.976383 0.376728 0.2916)
(0.971022 0.365043 0.281463)
(0.967348 0.354878 0.271682)
(0.965857 0.344987 0.261988)
(0.966529 0.334627 0.251896)
(0.969001 0.323058 0.241236)
(0.972475 0.310657 0.230778)
(0.976354 0.297987 0.221004)
(0.980127 0.285477 0.211765)
(0.98357 0.273122 0.20265)
(0.986651 0.260927 0.193564)
(0.989385 0.248928 0.184574)
(0.99175 0.237104 0.175638)
(0.993844 0.225323 0.166734)
(0.995708 0.213631 0.157805)
(0.997309 0.201875 0.14888)
(0.998794 0.190236 0.140057)
(1.00011 0.178481 0.13112)
(1.00121 0.16668 0.122142)
(1.00222 0.154728 0.113097)
(1.00311 0.142452 0.103788)
(1.00413 0.130003 0.0944326)
(1.00525 0.117408 0.0850004)
(1.00632 0.104766 0.0756185)
(1.00746 0.0924732 0.0665198)
(1.00855 0.0806109 0.0578463)
(1.0095 0.0694418 0.0497211)
(1.0103 0.0591567 0.0422817)
(1.01092 0.0497745 0.0355337)
(1.01144 0.0413787 0.0295135)
(1.01179 0.0340175 0.0242582)
(1.012 0.0275783 0.0196602)
(1.01216 0.0221634 0.0157757)
(1.01225 0.0174686 0.0124291)
(1.01228 0.0137412 0.00977404)
(1.01229 0.01043 0.00740913)
(1.01225 0.00817631 0.00580866)
(0.999368 0.476804 0.153892)
(0.999156 0.472258 0.171336)
(0.998288 0.453648 0.186855)
(1.00515 0.445627 0.181648)
(1.0119 0.446296 0.166483)
(1.01642 0.455559 0.143841)
(1.01566 0.470989 0.125459)
(1.01229 0.487767 0.118942)
(1.00993 0.500128 0.125424)
(1.00659 0.502806 0.14099)
(1.00007 0.495395 0.155702)
(0.991724 0.4811 0.163712)
(0.983507 0.464432 0.16468)
(0.97645 0.448289 0.160463)
(0.971077 0.434087 0.154464)
(0.967393 0.421426 0.148288)
(0.965899 0.409089 0.142077)
(0.966565 0.396106 0.135646)
(0.969016 0.381827 0.129078)
(0.972468 0.36682 0.122965)
(0.97635 0.351755 0.1176)
(0.980134 0.337002 0.112687)
(0.983577 0.322454 0.107844)
(0.986655 0.308068 0.102989)
(0.989387 0.293896 0.0981518)
(0.991748 0.279901 0.0933103)
(0.993841 0.265964 0.0884785)
(0.995703 0.252087 0.0836069)
(0.997301 0.238166 0.0787535)
(0.998785 0.224378 0.0739569)
(1.0001 0.210459 0.0690977)
(1.0012 0.196476 0.064193)
(1.00222 0.182331 0.0592738)
(1.00311 0.167806 0.054216)
(1.00412 0.153118 0.0491661)
(1.00522 0.138261 0.0441192)
(1.00629 0.123381 0.0391492)
(1.00743 0.108899 0.0343461)
(1.00851 0.0949596 0.029813)
(1.00946 0.0818359 0.0255801)
(1.01026 0.0697621 0.0217278)
(1.01088 0.0587434 0.018252)
(1.01141 0.048875 0.0151518)
(1.01176 0.0402153 0.0124672)
(1.01198 0.0326357 0.010105)
(1.01214 0.0262358 0.00811805)
(1.01224 0.0206973 0.00640281)
(1.01228 0.016289 0.00504375)
(1.01229 0.0123728 0.00382222)
(1.01223 0.00973428 0.00300568)
(0.999367 0.501023 -0.000983203)
(0.999141 0.502143 0.0169679)
(0.998304 0.489185 0.0375915)
(1.0052 0.479779 0.0351028)
(1.01189 0.475928 0.0204293)
(1.01638 0.477845 -0.0041001)
(1.01565 0.486695 -0.0262234)
(1.01234 0.500597 -0.037506)
(1.00994 0.514461 -0.0351858)
(1.00657 0.521884 -0.0212726)
(1.00007 0.519372 -0.00501342)
(0.991742 0.508259 0.0070384)
(0.983527 0.492773 0.013154)
(0.97647 0.476132 0.014171)
(0.971083 0.46076 0.0128651)
(0.967406 0.446789 0.0109038)
(0.965928 0.433118 0.00880064)
(0.966578 0.418798 0.00670621)
(0.969016 0.403184 0.00488917)
(0.972464 0.387015 0.00372697)
(0.976375 0.371028 0.00333178)
(0.980149 0.355493 0.00323778)
(0.983584 0.340161 0.00312855)
(0.986652 0.324981 0.00295987)
(0.989379 0.310004 0.0027424)
(0.991738 0.295202 0.00247086)
(0.993833 0.280442 0.00219045)
(0.995692 0.265744 0.00185715)
(0.997287 0.251001 0.00156269)
(0.998771 0.236416 0.00127938)
(1.00009 0.221675 0.000976051)
(1.00118 0.206886 0.000657888)
(1.00219 0.191927 0.00036688)
(1.00308 0.176566 7.9534e-05)
(1.00408 0.161055 -0.000147944)
(1.00519 0.145393 -0.000325996)
(1.00626 0.129718 -0.000441609)
(1.00741 0.114474 -0.000524101)
(1.0085 0.099812 -0.000519787)
(1.00946 0.0860199 -0.000490504)
(1.01027 0.0733361 -0.000423691)
(1.01089 0.0617599 -0.000339833)
(1.01142 0.0513924 -0.000265427)
(1.01178 0.0422942 -0.000173702)
(1.012 0.0343262 -0.000114325)
(1.01217 0.0275893 -7.24946e-05)
(1.01227 0.0217657 -3.41333e-05)
(1.0123 0.0171315 -3.88248e-06)
(1.0123 0.0130094 1.5601e-06)
(1.01227 0.0102502 1.74343e-05)
(0.999366 0.476198 -0.155758)
(0.999161 0.482753 -0.138982)
(0.998264 0.476922 -0.115538)
(1.00517 0.467267 -0.114932)
(1.01193 0.458857 -0.127542)
(1.01642 0.453133 -0.151469)
(1.01562 0.454826 -0.175391)
(1.01229 0.464505 -0.190456)
(1.00994 0.478362 -0.192399)
(1.0066 0.489751 -0.181368)
(1.00007 0.492459 -0.165115)
(0.991723 0.485637 -0.150269)
(0.983523 0.472685 -0.13968)
(0.976463 0.45709 -0.133553)
(0.971064 0.44206 -0.130043)
(0.967373 0.428215 -0.127582)
(0.965892 0.41459 -0.12532)
(0.96656 0.400334 -0.122849)
(0.968992 0.384958 -0.119718)
(0.972451 0.369251 -0.115787)
(0.976359 0.353945 -0.111202)
(0.980138 0.33916 -0.106488)
(0.983577 0.324552 -0.101845)
(0.986644 0.310075 -0.0973116)
(0.989374 0.295779 -0.0928793)
(0.991733 0.281629 -0.0885531)
(0.993828 0.267526 -0.0842417)
(0.995689 0.253456 -0.080007)
(0.997285 0.239365 -0.0757163)
(0.998768 0.225423 -0.0714594)
(1.00008 0.211329 -0.0671723)
(1.00118 0.197184 -0.0628736)
(1.00217 0.182896 -0.058491)
(1.00306 0.168214 -0.0539675)
(1.00408 0.153408 -0.0493252)
(1.0052 0.138457 -0.0446175)
(1.00628 0.123498 -0.0398656)
(1.00744 0.108948 -0.0352291)
(1.00854 0.0949738 -0.0306908)
(1.00949 0.0818312 -0.0264046)
(1.01032 0.0697471 -0.0224313)
(1.01094 0.0587257 -0.0188076)
(1.01147 0.0488603 -0.0155797)
(1.01182 0.0402048 -0.012733)
(1.01204 0.0326219 -0.0102678)
(1.0122 0.0262105 -0.0082119)
(1.01229 0.0206758 -0.00643401)
(1.01232 0.0162714 -0.00503512)
(1.01231 0.0123557 -0.00380912)
(1.0123 0.009731 -0.00296637)
(0.999367 0.404757 -0.295291)
(0.999145 0.416234 -0.281412)
(0.998309 0.4178 -0.257093)
(1.00518 0.408811 -0.253673)
(1.01187 0.397069 -0.263291)
(1.01641 0.38419 -0.284059)
(1.01565 0.378297 -0.307234)
(1.01232 0.38292 -0.324592)
(1.00996 0.395499 -0.330769)
(1.00659 0.409679 -0.323785)
(1.00007 0.417241 -0.309116)
(0.991733 0.415304 -0.29285)
(0.983494 0.406326 -0.27879)
(0.976414 0.393507 -0.268179)
(0.97102 0.380362 -0.260211)
(0.967348 0.36799 -0.253561)
(0.965879 0.355754 -0.247138)
(0.966541 0.343015 -0.240356)
(0.968986 0.329377 -0.232627)
(0.972461 0.315644 -0.224039)
(0.976362 0.302469 -0.214975)
(0.980136 0.289836 -0.205932)
(0.983579 0.277368 -0.196997)
(0.986652 0.264983 -0.188206)
(0.989382 0.252747 -0.179566)
(0.991744 0.240615 -0.171075)
(0.993837 0.228531 -0.162612)
(0.995699 0.216447 -0.154241)
(0.997298 0.204355 -0.145809)
(0.998783 0.192398 -0.137448)
(1.0001 0.180294 -0.129014)
(1.0012 0.168152 -0.120546)
(1.00219 0.1559 -0.111954)
(1.00308 0.143304 -0.103115)
(1.00411 0.130613 -0.0941186)
(1.00523 0.11779 -0.0850212)
(1.00632 0.104969 -0.0758717)
(1.00747 0.0925068 -0.066976)
(1.00857 0.0805707 -0.0583549)
(1.00952 0.0693579 -0.0502305)
(1.01033 0.0590588 -0.0427357)
(1.01096 0.0496868 -0.0359043)
(1.01148 0.0413114 -0.029799)
(1.01182 0.0339715 -0.0244492)
(1.01204 0.0275418 -0.0197919)
(1.01219 0.0221116 -0.0158829)
(1.01228 0.0174323 -0.0124889)
(1.01231 0.0137129 -0.00980753)
(1.01231 0.0104082 -0.0074292)
(1.01229 0.00817797 -0.0058031)
(1.00379 0.572399 0.399526)
(1.02677 0.617977 0.363266)
(1.02415 0.661509 0.362172)
(1.01837 0.68456 0.391431)
(1.01094 0.683482 0.432266)
(1.00485 0.658586 0.469696)
(0.999678 0.617506 0.48845)
(0.995119 0.573928 0.48527)
(0.991424 0.539277 0.465595)
(0.990083 0.517084 0.436498)
(0.991872 0.505275 0.407573)
(0.996558 0.49865 0.383263)
(1.00276 0.494607 0.365647)
(1.0079 0.490176 0.353567)
(1.01066 0.484116 0.344091)
(1.01076 0.475479 0.33347)
(1.00909 0.463852 0.320057)
(1.00686 0.450175 0.305666)
(1.00491 0.435106 0.291729)
(1.00355 0.420049 0.279204)
(1.00283 0.405054 0.267791)
(1.00252 0.390205 0.257167)
(1.00245 0.375386 0.247031)
(1.00248 0.360564 0.237216)
(1.0026 0.345752 0.227575)
(1.00269 0.330951 0.218079)
(1.0028 0.316084 0.208704)
(1.0029 0.301238 0.199338)
(1.00299 0.286341 0.190004)
(1.0031 0.2716 0.180687)
(1.00311 0.256468 0.171399)
(1.00313 0.241174 0.161935)
(1.00312 0.225737 0.152462)
(1.00307 0.209596 0.142538)
(1.00323 0.193099 0.132017)
(1.00341 0.176119 0.120996)
(1.00357 0.158622 0.109658)
(1.00395 0.141736 0.0982937)
(1.00432 0.125085 0.0871226)
(1.00466 0.108981 0.0762726)
(1.00498 0.0939719 0.0660271)
(1.00524 0.0800172 0.056445)
(1.0055 0.0673382 0.0476371)
(1.00567 0.0560795 0.03977)
(1.00575 0.0459455 0.0326823)
(1.00583 0.0374153 0.0266407)
(1.00589 0.0297958 0.0212297)
(1.0059 0.0238022 0.0169844)
(1.0059 0.0181828 0.0129738)
(1.00586 0.0145177 0.0104123)
(1.00379 0.667815 0.203075)
(1.02677 0.700039 0.154477)
(1.02415 0.741051 0.140165)
(1.01837 0.771928 0.160707)
(1.01093 0.783626 0.199788)
(1.00485 0.771484 0.243205)
(0.999687 0.738143 0.273853)
(0.995125 0.695756 0.284267)
(0.991422 0.656784 0.276109)
(0.990077 0.6267 0.255254)
(0.991859 0.606551 0.231502)
(0.996529 0.592697 0.210553)
(1.00271 0.583368 0.195136)
(1.00787 0.575404 0.184895)
(1.01067 0.566671 0.177534)
(1.01081 0.555091 0.169831)
(1.00914 0.539793 0.160559)
(1.00691 0.522304 0.151142)
(1.00495 0.503696 0.142617)
(1.00357 0.485533 0.135358)
(1.00283 0.46774 0.129133)
(1.00252 0.450328 0.123624)
(1.00246 0.433119 0.118567)
(1.00248 0.415993 0.113812)
(1.0026 0.398914 0.109225)
(1.0027 0.381924 0.104753)
(1.00281 0.364904 0.100402)
(1.00291 0.347872 0.0961145)
(1.003 0.330838 0.0917892)
(1.00311 0.313951 0.087458)
(1.00311 0.296701 0.0832478)
(1.00313 0.279271 0.0789194)
(1.00314 0.261678 0.0746452)
(1.00309 0.243257 0.0701782)
(1.00322 0.22437 0.0652401)
(1.00339 0.20486 0.0600208)
(1.00354 0.184771 0.0546671)
(1.0039 0.165243 0.0491298)
(1.00426 0.145998 0.0437067)
(1.0046 0.127384 0.0384237)
(1.00492 0.109987 0.0333796)
(1.00516 0.093766 0.0286544)
(1.00544 0.0789888 0.0242404)
(1.00561 0.0658312 0.0203116)
(1.0057 0.0540006 0.0167533)
(1.00577 0.0439899 0.0136894)
(1.00585 0.035044 0.0109292)
(1.00587 0.0280049 0.00876988)
(1.00589 0.0213854 0.00669299)
(1.00582 0.0171546 0.00541992)
(1.0038 0.697922 -0.0132187)
(1.02678 0.713435 -0.0694154)
(1.02413 0.748126 -0.0957838)
(1.01837 0.783917 -0.0856245)
(1.01096 0.806947 -0.0521017)
(1.00484 0.808861 -0.00716515)
(0.999661 0.786688 0.0322514)
(0.995118 0.749567 0.0553457)
(0.991425 0.709966 0.05968)
(0.990083 0.674836 0.0491116)
(0.991865 0.64832 0.0326998)
(0.996542 0.628703 0.0170314)
(1.00275 0.615059 0.00524259)
(1.0079 0.604272 -0.00200847)
(1.01069 0.593732 -0.00630297)
(1.0108 0.580388 -0.00995026)
(1.00912 0.563039 -0.0139844)
(1.00691 0.543537 -0.0175497)
(1.00495 0.523204 -0.0199202)
(1.00357 0.503664 -0.0212236)
(1.00284 0.484808 -0.0216496)
(1.00253 0.466545 -0.021525)
(1.00246 0.448632 -0.0210377)
(1.00248 0.430879 -0.0202735)
(1.0026 0.413223 -0.0193634)
(1.00269 0.395677 -0.018349)
(1.00279 0.378131 -0.0172145)
(1.0029 0.360636 -0.0160424)
(1.00297 0.343081 -0.0148593)
(1.00308 0.325677 -0.0137526)
(1.00308 0.30794 -0.0123799)
(1.0031 0.290025 -0.0111112)
(1.00309 0.271999 -0.0097729)
(1.00304 0.253109 -0.00829301)
(1.00316 0.233605 -0.00711519)
(1.00333 0.21345 -0.00602889)
(1.00349 0.192723 -0.00489284)
(1.00386 0.172439 -0.00408687)
(1.00423 0.152462 -0.00326579)
(1.00458 0.133123 -0.00250995)
(1.00493 0.115022 -0.0018989)
(1.00518 0.0981188 -0.00135545)
(1.00546 0.0826844 -0.000971736)
(1.00565 0.0689324 -0.000646332)
(1.00575 0.0565594 -0.000390738)
(1.00584 0.0460694 -0.000230584)
(1.00592 0.0367036 -0.000133954)
(1.00592 0.0293315 -4.31416e-05)
(1.00592 0.0223942 -1.89635e-05)
(1.00588 0.0180021 5.43272e-05)
(1.00379 0.659655 -0.228244)
(1.02677 0.657137 -0.286472)
(1.02416 0.68186 -0.322235)
(1.01834 0.719011 -0.323749)
(1.01093 0.751456 -0.298938)
(1.00487 0.76708 -0.256711)
(0.999686 0.758079 -0.212365)
(0.99511 0.729956 -0.178993)
(0.99141 0.693688 -0.162633)
(0.990075 0.65704 -0.161802)
(0.991859 0.626759 -0.169223)
(0.996524 0.603198 -0.178039)
(1.00273 0.586559 -0.185014)
(1.00788 0.57414 -0.188564)
(1.01068 0.562821 -0.189331)
(1.0108 0.548968 -0.18863)
(1.00913 0.531092 -0.187067)
(1.00691 0.511328 -0.184414)
(1.00494 0.491257 -0.180397)
(1.00356 0.472268 -0.175596)
(1.00283 0.454238 -0.170193)
(1.00253 0.436926 -0.164419)
(1.00245 0.420051 -0.158417)
(1.00247 0.403424 -0.152205)
(1.00258 0.386933 -0.145864)
(1.00267 0.370582 -0.139474)
(1.00277 0.354277 -0.132952)
(1.00288 0.338019 -0.126442)
(1.00296 0.321732 -0.119893)
(1.00306 0.305543 -0.113444)
(1.00305 0.289138 -0.106649)
(1.00307 0.272517 -0.0998184)
(1.00306 0.255823 -0.0929691)
(1.00301 0.238367 -0.0857004)
(1.00315 0.220216 -0.0784568)
(1.00333 0.201423 -0.0711564)
(1.0035 0.182106 -0.0636302)
(1.00389 0.163078 -0.0565737)
(1.00428 0.144337 -0.0495842)
(1.00463 0.126151 -0.0428635)
(1.00502 0.109101 -0.0366947)
(1.00529 0.09316 -0.0309591)
(1.00557 0.0785697 -0.0258633)
(1.00575 0.0655468 -0.0213419)
(1.00584 0.0538249 -0.0173185)
(1.00592 0.0438689 -0.0139964)
(1.00598 0.0349658 -0.0110821)
(1.00597 0.0279558 -0.00879999)
(1.00595 0.0213572 -0.00670426)
(1.00595 0.0171771 -0.00530331)
(1.0038 0.55685 -0.420916)
(1.02676 0.536387 -0.475523)
(1.02416 0.548959 -0.517213)
(1.01837 0.583837 -0.529996)
(1.01092 0.62221 -0.51653)
(1.00484 0.650152 -0.481233)
(0.999692 0.655427 -0.436216)
(0.99513 0.638929 -0.395822)
(0.991417 0.60943 -0.369084)
(0.990076 0.574853 -0.356968)
(0.991878 0.543703 -0.354647)
(0.996554 0.518625 -0.355763)
(1.00275 0.500651 -0.357312)
(1.00791 0.487607 -0.356862)
(1.01071 0.476502 -0.354036)
(1.01081 0.463574 -0.348997)
(1.00911 0.44724 -0.341955)